/home/civalleri/bin/svn586_131211_pub1_0_1/bin/Linux-ifort_XE_openmpi_emt64/v1.0.1//Pcrystal
/data/civalleri/64561
script started on node4
QUARTZ ALFA
CRYSTAL
0 0 2
154
0 0 16
 4.87263992     5.39908002
2
14     4.598177872899E-01  1.110223024625E-16  0.000000000000E+00
 8     4.069112781769E-01  2.862193828509E-01  1.030921159427E-01
FREQCALC
INTENS
INTRAMAN
INTCPHF
MAXCYCLE
200
MAXCYCLE2
200
FMIXING
50
FMIXING2
50
END
RAMSPEC
END
IRSPEC
END
ENDfreq
END
14 5
2 0 6 2.0 1.0
2 1 6 8.0 1.0
2 1 2 4.0 1.0
0 1 1 0.0 1.0
0.13 1.0 1.0
0 3 1 0.0 1.0
0.5 1.0
8 4
0 0 6 2.0 1.0
0.5484671660D+04 0.1831074430D-02
0.8252349460D+03 0.1395017220D-01
0.1880469580D+03 0.6844507810D-01
0.5296450000D+02 0.2327143360D+00
0.1689757040D+02 0.4701928980D+00
0.5799635340D+01 0.3585208530D+00
0 1 3 6.0 1.0
0.1553961625D+02 -0.1107775490D+00 0.7087426820D-01
0.3599933586D+01 -0.1480262620D+00 0.3397528390D+00
0.1013761750D+01 0.1130767010D+01 0.7271585770D+00
0 1 1 0.0 1.0
0.2742 0.100000D+01 0.100000D+01
0 3 1 0.0 1.0
0.6 1.0
99 0
END
DFT
EXCHANGE
PBESOL
CORRELAT
PBESOL
XLGRID
END
LEVSHIFT
6 0
SCFDIR
SHRINK
3 3
FMIXING
20
TOLDEE
10
END
Thu Jan 16 10:45:11 CET 2014
 PROCESS            0  OF           16  WORKING
 PROCESS            1  OF           16  WORKING
 PROCESS            4  OF           16  WORKING
 PROCESS            5  OF           16  WORKING
 PROCESS            3  OF           16  WORKING
 PROCESS            6  OF           16  WORKING
 PROCESS            2  OF           16  WORKING
 PROCESS            8  OF           16  WORKING
 PROCESS            9  OF           16  WORKING
 PROCESS           13  OF           16  WORKING
 PROCESS           10  OF           16  WORKING
 PROCESS           12  OF           16  WORKING
 PROCESS           14  OF           16  WORKING
 PROCESS           11  OF           16  WORKING
 PROCESS           15  OF           16  WORKING

         
 *******************************************************************************
 *                                                                             *
 *                               CRYSTAL09                                     *
 *                      public : 1.0.1 - Dec 11th, 2013                        *
 *                       HTTP://WWW.CRYSTAL.UNITO.IT                           *
 *                                                                             *
 PROCESS            7  OF           16  WORKING
 *                              MAIN AUTHORS                                   *
 *                                                                             *
 *  R. DOVESI(1,11), V.R. SAUNDERS(2), C. ROETTI(1,11), R. ORLANDO(1,11),      *
 *  C.M. ZICOVICH-WILSON(1,3), F. PASCALE(4), B. CIVALLERI(1,11),              *
 *  K. DOLL(5), N.M. HARRISON(2,6), I. J. BUSH(7), Ph. D'ARCO(8),              *
 *  M. LLUNELL(9), M. CAUSA'(10), Y. NOEL(8)                                   *
 *                                                                             *
 *        CONTRIBUTIONS TO THE CURRENT RELEASE HAVE BEEN GIVEN BY              *
 *                                                                             *
 *  L. MASCHIO(1,11), S. CASASSA(1,11), A. ERBA(1,11), M. FERRABONE(1,11),     *
 *  M. DE LA PIERRE(1,11), M. FERRERO(1,11), V. LACIVITA(1,11),                *
 *  J. BAIMA(1,11), E. ALBANESE(1,11), M.F. PEINTINGER(12), R. BAST(13),       *
 *  M. RERAT(14), B. KIRTMAN(15), R. DEMICHELIS(1,16)                          *
 *                                                                             *
 * (1) THEORETICAL CHEMISTRY GROUP - UNIVERSITA' DI TORINO - TORINO (ITALY)    *
 *     http://www.crystal.unito.it                                             *
 * (2) COMPUTATIONAL SCIENCE & ENGINEERING DEPARTMENT - STFC DARESBURY (UK)    *
 *     http://www.stfc.ac.uk/CSE/randd/cmg/CRYSTAL/25806.aspx                  *
 * (3) UNIVERSIDAD AUTONOMA DEL ESTADO DE MORELOS - CUERNAVACA (MEXICO)        *
 * (4) UNIVERSITE' DE LORRAINE - NANCY (FRANCE)                                *
 * (5) UNIVERSITAET ULM - ULM (GERMANY); (6) IMPERIAL COLLEGE - LONDON (UK)    *
 * (7) NAG - OXFORD (UK); (8) UPMC - SORBONNE UNIVERSITES - PARIS (FRANCE)     *
 * (9) UNIVERSIDAD DE BARCELONA - BARCELONA (SPAIN)                            *
 *(10) UNIVERSITA' DI NAPOLI "FEDERICO II" - NAPOLI (ITALY)                    *
 *(11) NIS - NANOSTRUCTURED INTERFACES AND SURFACES - TORINO (ITALY)           *
 *(12) MPI FUER CHEMISCHE ENERGIEKONVERSION - MUELHEIM AN DER RUHR (GERMANY)   *
 *(13) UNIVERSITY OF STOCKHOLM - STOCKHOLM (SWEDEN)                            *
 *(14) UNIVERSITE' DE PAU ET DES PAYS DE L'ADOUR - PAU (FRANCE)                *
 *(15) UNIVERSITY OF CALIFORNIA SANTA BARBARA - SANTA BARBARA (USA)            *
 *(16) CURTIN UNIVERSITY - PERTH (AUSTRALIA)                                   *
 *                                                                             *
 ********************************************************************************
 EEEEEEEEEE STARTING  DATE 16 01 2014 TIME 10:45:12.3
 QUARTZ ALFA                                                                     

 CRYSTAL CALCULATION
 (INPUT ACCORDING TO THE INTERNATIONAL TABLES FOR X-RAY CRYSTALLOGRAPHY)
 CRYSTAL FAMILY                       :  HEXAGONAL   
 CRYSTAL CLASS  (GROTH - 1921)        :  TRIGONAL TRAPEZOHEDRAL               

 SPACE GROUP (NONCENTROSYMMETRIC)     :  P 32 2 1        

 SHIFT OF THE ORIGIN                  :      0      0    2/3

 LATTICE PARAMETERS  (ANGSTROMS AND DEGREES) - CONVENTIONAL CELL
        A           B           C        ALPHA        BETA       GAMMA
     4.87264     4.87264     5.39908    90.00000    90.00000   120.00000


 NUMBER OF IRREDUCIBLE ATOMS IN THE CONVENTIONAL CELL:    2

 INPUT COORDINATES

 ATOM AT. N.              COORDINATES
   1  14     4.598177872899E-01  1.110223024625E-16  0.000000000000E+00
   2   8     4.069112781769E-01  2.862193828509E-01  1.030921159427E-01

 *******************************************************************************

 << INFORMATION >>: FROM NOW ON, ALL COORDINATES REFER TO THE PRIMITIVE CELL

 *******************************************************************************

 LATTICE PARAMETERS  (ANGSTROMS AND DEGREES) - PRIMITIVE CELL
       A          B          C         ALPHA     BETA     GAMMA        VOLUME
    4.87264    4.87264    5.39908    90.00000  90.00000 120.00000    111.014328

 COORDINATES OF THE EQUIVALENT ATOMS (FRACTIONAL UNITS)

 N. ATOM EQUIV AT. N.          X                  Y                  Z

   1   1   1   14 SI    4.59817787290E-01  1.11022302463E-16  0.00000000000E+00
   2   1   2   14 SI   -1.11022302463E-16  4.59817787290E-01 -3.33333333333E-01
   3   1   3   14 SI   -4.59817787290E-01 -4.59817787290E-01  3.33333333333E-01

   4   2   1    8 O     4.06911278177E-01  2.86219382851E-01  1.03092115943E-01
   5   2   2    8 O    -2.86219382851E-01  1.20691895326E-01 -2.30241217391E-01
   6   2   3    8 O    -1.20691895326E-01 -4.06911278177E-01  4.36425449276E-01
   7   2   4    8 O     1.20691895326E-01 -2.86219382851E-01 -1.03092115943E-01
   8   2   5    8 O    -4.06911278177E-01 -1.20691895326E-01  2.30241217391E-01
   9   2   6    8 O     2.86219382851E-01  4.06911278177E-01 -4.36425449276E-01

 NUMBER OF SYMMETRY OPERATORS         :    6
 *******************************************************************************
 * GEOMETRY EDITING - INPUT COORDINATES ARE GIVEN IN ANGSTROM         
 *******************************************************************************

 GEOMETRY NOW FULLY CONSISTENT WITH THE GROUP

 FRQFRQFRQFRQFRQFRQFRQFRQFRQFRQFRQFRQFRQFRQFRQFRQFRQFRQFRQFRQFRQFRQFRQFRQFRQFRQ

                       FREQUENCY CALCULATION

 INFORMATION **** INPFREQ **** IR INTENSITIES EVALUATED THROUGH CPHF APPROACH
 INFORMATION **** RAMSPEC **** RAMAN SPECTRA CALCULATION REQUESTED
 INFORMATION **** IRSPEC **** IR SPECTRA CALCULATION REQUESTED
 INFORMATION **** INPFREQ **** NEW DEFAULT - IMPOSING ECKART CONDITIONS TO THE HESSIAN

 GCALCO - MAX INDICES DIRECT LATTICE VECTOR    16    16    12
 NO.OF VECTORS CREATED 6999 STARS  380 RMAX   107.55899 BOHR

 GEOMETRY FOR WAVE FUNCTION - DIMENSIONALITY OF THE SYSTEM    3
 (NON PERIODIC DIRECTION: LATTICE PARAMETER FORMALLY SET TO 500)
 *******************************************************************************
 LATTICE PARAMETERS (ANGSTROMS AND DEGREES) - BOHR = 0.5291772083 ANGSTROM
 PRIMITIVE CELL - CENTRING CODE 1/0 VOLUME=   111.014328 - DENSITY  2.691 g/cm^3
         A              B              C           ALPHA      BETA       GAMMA 
     4.87263992     4.87263992     5.39908002    90.000000  90.000000 120.000000
 *******************************************************************************
 ATOMS IN THE ASYMMETRIC UNIT    2 - ATOMS IN THE UNIT CELL:    9
     ATOM              X/A                 Y/B                 Z/C    
 *******************************************************************************
   1 T  14 SI    4.598177872899E-01 -1.110223024625E-16  0.000000000000E+00
   2 F  14 SI   -2.630966263265E-17  4.598177872899E-01 -3.333333333333E-01
   3 F  14 SI   -4.598177872899E-01 -4.598177872899E-01  3.333333333333E-01
   4 T   8 O     4.069112781769E-01  2.862193828509E-01  1.030921159427E-01
   5 F   8 O    -2.862193828509E-01  1.206918953260E-01 -2.302412173906E-01
   6 F   8 O    -1.206918953260E-01 -4.069112781769E-01  4.364254492760E-01
   7 F   8 O     1.206918953260E-01 -2.862193828509E-01 -1.030921159427E-01
   8 F   8 O    -4.069112781769E-01 -1.206918953260E-01  2.302412173906E-01
   9 F   8 O     2.862193828509E-01  4.069112781769E-01 -4.364254492760E-01

 T = ATOM BELONGING TO THE ASYMMETRIC UNIT

 ****    6 SYMMOPS - TRANSLATORS IN FRACTIONAL UNITS
 **** MATRICES AND TRANSLATORS IN THE CRYSTALLOGRAPHIC REFERENCE FRAME
   V INV                    ROTATION MATRICES                   TRANSLATORS
   1   1  1.00  0.00  0.00  0.00  1.00  0.00  0.00  0.00  1.00  0.00  0.00  0.00
   2   3 -0.00 -1.00  0.00  1.00 -1.00  0.00  0.00  0.00  1.00  0.00  0.00  0.67
   3   2 -1.00  1.00  0.00 -1.00 -0.00  0.00  0.00  0.00  1.00  0.00  0.00  0.33
   4   4  1.00 -1.00  0.00  0.00 -1.00  0.00  0.00  0.00 -1.00  0.00  0.00  0.00
   5   5 -1.00  0.00  0.00 -1.00  1.00  0.00  0.00  0.00 -1.00  0.00  0.00  0.33
   6   6  0.00  1.00  0.00  1.00 -0.00  0.00  0.00  0.00 -1.00  0.00  0.00  0.67

 DIRECT LATTICE VECTORS CARTESIAN COMPONENTS (ANGSTROM)
          X                    Y                    Z
   0.421982995421E+01  -0.243631996000E+01   0.000000000000E+00
   0.000000000000E+00   0.487263992000E+01   0.000000000000E+00
   0.000000000000E+00   0.000000000000E+00   0.539908002000E+01


 CARTESIAN COORDINATES - PRIMITIVE CELL
 *******************************************************************************
 *      ATOM          X(ANGSTROM)         Y(ANGSTROM)         Z(ANGSTROM)
 *******************************************************************************
    1    14 SI    1.940352872286E+00 -1.120263253137E+00  0.000000000000E+00
    2    14 SI   -1.110223024625E-16  2.240526506275E+00 -1.799693340000E+00
    3    14 SI   -1.940352872286E+00 -1.120263253137E+00  1.799693340000E+00
    4     8 O     1.717096400358E+00  4.032779217856E-01  5.566025834058E-01
    5     8 O    -1.207797125231E+00  1.285410142564E+00 -1.243090756594E+00
    6     8 O    -5.092992751275E-01 -1.688688064350E+00  2.356295923406E+00
    7     8 O     5.092992751275E-01 -1.688688064350E+00 -5.566025834058E-01
    8     8 O    -1.717096400358E+00  4.032779217856E-01  1.243090756594E+00
    9     8 O     1.207797125231E+00  1.285410142564E+00 -2.356295923406E+00

 *******************************************************************************
 LOCAL ATOMIC FUNCTIONS BASIS SET
 *******************************************************************************
   ATOM   X(AU)   Y(AU)   Z(AU)  N. TYPE  EXPONENT  S COEF   P COEF   D/F/G COEF
 *******************************************************************************
   1 SI   3.667  -2.117   0.000
                                  1 S  
                                         1.612E+04 1.959E-03 0.000E+00 0.000E+00
                                         2.426E+03 1.493E-02 0.000E+00 0.000E+00
                                         5.539E+02 7.285E-02 0.000E+00 0.000E+00
                                         1.563E+02 2.461E-01 0.000E+00 0.000E+00
                                         5.007E+01 4.859E-01 0.000E+00 0.000E+00
                                         1.702E+01 3.250E-01 0.000E+00 0.000E+00
                             2-   5 SP 
                                         2.927E+02-2.781E-03 4.438E-03 0.000E+00
                                         6.987E+01-3.571E-02 3.267E-02 0.000E+00
                                         2.234E+01-1.150E-01 1.347E-01 0.000E+00
                                         8.150E+00 9.356E-02 3.287E-01 0.000E+00
                                         3.135E+00 6.030E-01 4.496E-01 0.000E+00
                                         1.225E+00 4.190E-01 2.614E-01 0.000E+00
                             6-   9 SP 
                                         1.079E+00-3.761E-01 6.710E-02 0.000E+00
                                         3.024E-01 1.252E+00 9.569E-01 0.000E+00
                            10-  13 SP 
                                         1.300E-01 1.000E+00 1.000E+00 0.000E+00
                            14-  18 D  
                                         5.000E-01 0.000E+00 0.000E+00 1.000E+00
   2 SI  -0.000   4.234  -3.401
   3 SI  -3.667  -2.117   3.401
   4 O    3.245   0.762   1.052
                                 55 S  
                                         5.485E+03 1.831E-03 0.000E+00 0.000E+00
                                         8.252E+02 1.395E-02 0.000E+00 0.000E+00
                                         1.880E+02 6.845E-02 0.000E+00 0.000E+00
                                         5.296E+01 2.327E-01 0.000E+00 0.000E+00
                                         1.690E+01 4.702E-01 0.000E+00 0.000E+00
                                         5.800E+00 3.585E-01 0.000E+00 0.000E+00
                            56-  59 SP 
                                         1.554E+01-1.108E-01 7.087E-02 0.000E+00
                                         3.600E+00-1.480E-01 3.398E-01 0.000E+00
                                         1.014E+00 1.131E+00 7.272E-01 0.000E+00
                            60-  63 SP 
                                         2.742E-01 1.000E+00 1.000E+00 0.000E+00
                            64-  68 D  
                                         6.000E-01 0.000E+00 0.000E+00 1.000E+00
   5 O   -2.282   2.429  -2.349
   6 O   -0.962  -3.191   4.453
   7 O    0.962  -3.191  -1.052
   8 O   -3.245   0.762   2.349
   9 O    2.282   2.429  -4.453
 INFORMATION **** SET_MPP **** PCRYSTAL CALCULATION
 INFORMATION **** READM2 **** NEW DEFAULT: FOCK/KS MATRIX MIXING SET TO 30 %
 INFORMATION **** READM2 **** NEW DEFAULT: FULL DIRECT SCF MODE
 INFORMATION **** READM2 **** NEW DEFAULT: COULOMB BIPOLAR BUFFER SET TO 32 Mb
 INFORMATION **** READM2 **** NEW DEFAULT: EXCHANGE BIPOLAR BUFFER SET TO 32 Mb

 *******************************************************************************
 NEW DEFAULT: DFT INTEGRATION GRID INCREASED TO XLGRID
 NEW DEFAULT: LEVEL SHIFTER 6 0
 IF THE SYSTEM IS A METAL USE KEYWORD NOSHIFT
 *******************************************************************************

 INFORMATION **** LEVSHIFT **** LEVEL SHIFTER ACTIVE
 INFORMATION **** READM2 **** FULL DIRECT SCF (MONO AND BIEL INT) SELECTED
 INFORMATION **** TOLDEE **** SCF TOL ON TOTAL ENERGY SET TO          10
 *******************************************************************************
 N. OF ATOMS PER CELL         9  COULOMB OVERLAP TOL         (T1) 10**   -6
 NUMBER OF SHELLS            39  COULOMB PENETRATION TOL     (T2) 10**   -6
 NUMBER OF AO               138  EXCHANGE OVERLAP TOL        (T3) 10**   20
 N. OF ELECTRONS PER CELL    90  EXCHANGE PSEUDO OVP (F(G))  (T4) 10**   20
 CORE ELECTRONS PER CELL     42  EXCHANGE PSEUDO OVP (P(G))  (T5) 10**   20
 N. OF SYMMETRY OPERATORS     6  POLE ORDER IN MONO ZONE                  4
 *******************************************************************************
 TYPE OF CALCULATION :  RESTRICTED CLOSED SHELL
 KOHN-SHAM HAMILTONIAN

 (EXCHANGE)[CORRELATION] FUNCTIONAL:(PBEsol GGA)[PBEsol]

 EIGENVALUE LEVEL SHIFTING OF  0.600 HARTREE

 CAPPA:IS1  3;IS2  3;IS3  3; K PTS MONK NET   7; SYMMOPS:K SPACE  12;G SPACE   6

 *******************************************************************************
 MAX NUMBER OF SCF CYCLES      50  CONVERGENCE ON DELTAP        10**-20
 WEIGHT OF F(I) IN F(I+1)      20% CONVERGENCE ON ENERGY        10**-10
 EIGENVALUE LEVEL SHIFTING OF  0.600 HARTREE
 SHRINK. FACT.(MONKH.)    3  3  3  NUMBER OF K POINTS IN THE IBZ      7
 SHRINKING FACTOR(GILAT NET)    3  NUMBER OF K POINTS(GILAT NET)      7
 *******************************************************************************
 *** K POINTS COORDINATES (OBLIQUE COORDINATES IN UNITS OF IS =  3)
   1-R(  0  0  0)   2-C(  1  0  0)   3-C(  1  1  0)   4-C(  0  0  1)
   5-C(  1  0  1)   6-C(  2  0  1)   7-C(  1  1  1)

 DIRECT LATTICE VECTORS COMPON. (A.U.)     RECIP. LATTICE VECTORS COMPON. (A.U.) 
        X            Y            Z              X            Y            Z
    7.9743229   -4.6039775    0.0000000      0.7879271    0.0000000    0.0000000
    0.0000000    9.2079550    0.0000000      0.3939636    0.6823649    0.0000000
    0.0000000    0.0000000   10.2027826      0.0000000    0.0000000    0.6158306

 DISK SPACE FOR EIGENVECTORS (FTN 10)      247572 REALS

 SYMMETRY ADAPTION OF THE BLOCH FUNCTIONS ENABLED
 TTTTTTTTTTTTTTTTTTTTTTTTTTTTTT gordsh1     TELAPSE        1.04 TCPU        0.02

 MATRIX SIZE: P(G)   63492, F(G)   32043, P(G) IRR    6171, F(G) IRR    6171
 MAX G-VECTOR INDEX FOR 1- AND 2-ELECTRON INTEGRALS  71

 TTTTTTTTTTTTTTTTTTTTTTTTTTTTTT INPUT       TELAPSE        1.04 TCPU        0.02

 NEIGHBORS OF THE NON-EQUIVALENT ATOMS

 N = NUMBER OF NEIGHBORS AT DISTANCE R
    ATOM  N     R/ANG      R/AU   NEIGHBORS (ATOM LABELS AND CELL INDICES)
   1 SI   2     1.6373     3.0941    4 O    0 0 0    7 O    0 0 0
   1 SI   2     1.6416     3.1021    5 O    1 0 0    8 O    1 0 0
   1 SI   4     3.0479     5.7597    2 SI   1 0 0    2 SI   0-1 0    3 SI   1 1 0
                                     3 SI   1 0 0
   1 SI   2     3.4024     6.4295    4 O    0-1 0    7 O    1 1 0
   1 SI   2     3.4462     6.5123    6 O    0 0 0    9 O    0 0 0
   1 SI   2     3.4892     6.5937    6 O    1 1 0    9 O    0-1 0

   4 O    1     1.6373     3.0941    1 SI   0 0 0
   4 O    1     1.6416     3.1021    3 SI   1 1 0
   4 O    2     2.6503     5.0084    8 O    1 1 0    8 O    1 0 0
   4 O    1     2.6598     5.0262    7 O    0 0 0
   4 O    1     2.6868     5.0772    9 O    0 0 1
   4 O    2     2.7076     5.1167    5 O    1 0 0    6 O    1 1 0


 SYMMETRY ALLOWED INTERNAL DEGREE(S) OF FREEDOM:   4
 TTTTTTTTTTTTTTTTTTTTTTTTTTTTTT SYMM        TELAPSE        1.05 TCPU        0.03
 TTTTTTTTTTTTTTTTTTTTTTTTTTTTTT INT_SCREEN  TELAPSE        1.06 TCPU        0.03
 INFORMATION **** EXCBUF **** EXCH. BIPO BUFFER: WORDS USED =           0

 DFT PARAMETERS

     ATOM       ELECTRONS   NET CHARGE   R(ANGSTROM)
   1  14  SI     14.0000      0.0000     1.17000000
   4   8  O       8.0000      0.0000     0.74000000

 SIZE OF GRID=      43989
 TTTTTTTTTTTTTTTTTTTTTTTTTTTTTT MAKE_GRID2  TELAPSE        2.61 TCPU        1.59
 BECKE WEIGHT FUNCTION
 RADSAFE =     2.00
 TOLERANCES - DENSITY:10**- 6; POTENTIAL:10**- 9; GRID WGT:10**-14

 RADIAL INTEGRATION  - INTERVALS (POINTS,UPPER LIMIT):            1( 75,  4.0*R)

 ANGULAR INTEGRATION - INTERVALS (ACCURACY LEVEL [N. POINTS] UPPER LIMIT):
  1(  4[  86]   0.2)  2(  8[ 194]   0.5)  3( 12[ 350]   0.9)  4( 16[ 974]   3.5)
  5( 12[ 350]9999.0)
 TTTTTTTTTTTTTTTTTTTTTTTTTTTTTT INT_CALC    TELAPSE        2.65 TCPU        1.63
 EEEEEEEEEE INT_CALC TERMINATION  DATE 16 01 2014 TIME 10:45:13.9

 *******************************************************************************
 QUARTZ ALFA                                                                     
 CRYSTAL - SCF - TYPE OF CALCULATION :  RESTRICTED CLOSED SHELL
 *******************************************************************************

 CAPPA:IS1  3;IS2  3;IS3  3; K PTS MONK NET   7; SYMMOPS:K SPACE  12;G SPACE   6

 TTTTTTTTTTTTTTTTTTTTTTTTTTTTTT SDIK        TELAPSE        2.66 TCPU        1.64

 AAAAAAAAAAAAAAAAAAAAAAAAAAAAAAAAAAAAAAAAAAAAAAAAAAAAAAAAAAAAAAAAAAAAAAAAAAAAAAA
         ATOMIC WAVEFUNCTION(S)


 NUCLEAR CHARGE 14.0  SYMMETRY SPECIES            S    P
 N. ELECTRONS   14.0  NUMBER OF PRIMITIVE GTOS   15    9
                      NUMBER OF CONTRACTED GTOS   4    3
                      NUMBER OF CLOSED SHELLS     3    1
                      OPEN SHELL OCCUPATION       0    2

  ZNUC SCFIT  TOTAL HF ENERGY   KINETIC ENERGY   VIRIAL THEOREM ACCURACY
  14.0  10   -2.888073230E+02  2.889016516E+02 -1.999673492E+00  1.9E-06

 NUCLEAR CHARGE  8.0  SYMMETRY SPECIES            S    P
 N. ELECTRONS    8.0  NUMBER OF PRIMITIVE GTOS   10    4
                      NUMBER OF CONTRACTED GTOS   3    2
                      NUMBER OF CLOSED SHELLS     2    0
                      OPEN SHELL OCCUPATION       0    4

  ZNUC SCFIT  TOTAL HF ENERGY   KINETIC ENERGY   VIRIAL THEOREM ACCURACY
   8.0  12   -7.477715677E+01  7.467571879E+01 -2.001358380E+00  3.0E-06

 AAAAAAAAAAAAAAAAAAAAAAAAAAAAAAAAAAAAAAAAAAAAAAAAAAAAAAAAAAAAAAAAAAAAAAAAAAAAAAA

 TTTTTTTTTTTTTTTTTTTTTTTTTTTTTT MOQGAD      TELAPSE        2.67 TCPU        1.64
 TTTTTTTTTTTTTTTTTTTTTTTTTTTTTT SHELLX2     TELAPSE        2.88 TCPU        1.85
 TTTTTTTTTTTTTTTTTTTTTTTTTTTTTT MONMO3      TELAPSE        3.07 TCPU        2.05
 NUMERICALLY INTEGRATED DENSITY     89.9999389639
 TTTTTTTTTTTTTTTTTTTTTTTTTTTTTT NUMDFT      TELAPSE        3.52 TCPU        2.50
 CYC   0 ETOT(AU) -1.318431056829E+03 DETOT -1.32E+03 tst  0.00E+00 PX  1.00E+00
 TTTTTTTTTTTTTTTTTTTTTTTTTTTTTT FDIK        TELAPSE        3.61 TCPU        2.58
 INSULATING STATE
 TOP OF VALENCE BANDS -    BAND     45; K    3; EIG -3.7264538E-01 AU
 TOP OF VALENCE BANDS -    BAND     45; K    1; EIG -3.7828220E-01 AU
 BOTTOM OF VIRTUAL BANDS - BAND     46; K    1; EIG -1.0728899E-01 AU
 TTTTTTTTTTTTTTTTTTTTTTTTTTTTTT PDIG        TELAPSE        3.63 TCPU        2.60
 TTTTTTTTTTTTTTTTTTTTTTTTTTTTTT MOQGAD      TELAPSE        3.63 TCPU        2.61
 TTTTTTTTTTTTTTTTTTTTTTTTTTTTTT SHELLX2     TELAPSE        3.88 TCPU        2.86
 TTTTTTTTTTTTTTTTTTTTTTTTTTTTTT MONMO3      TELAPSE        4.10 TCPU        3.07
 NUMERICALLY INTEGRATED DENSITY     89.9999578299
 TTTTTTTTTTTTTTTTTTTTTTTTTTTTTT NUMDFT      TELAPSE        5.16 TCPU        4.13
 CYC   1 ETOT(AU) -1.316163123996E+03 DETOT  2.27E+00 tst  0.00E+00 PX  1.00E+00
 TTTTTTTTTTTTTTTTTTTTTTTTTTTTTT FDIK        TELAPSE        5.20 TCPU        4.18
 INSULATING STATE
 TOP OF VALENCE BANDS -    BAND     45; K    3; EIG -1.3861377E-01 AU
 TOP OF VALENCE BANDS -    BAND     45; K    1; EIG -1.4921974E-01 AU
 BOTTOM OF VIRTUAL BANDS - BAND     46; K    1; EIG  1.4471162E-02 AU
 TTTTTTTTTTTTTTTTTTTTTTTTTTTTTT PDIG        TELAPSE        5.22 TCPU        4.19
 TTTTTTTTTTTTTTTTTTTTTTTTTTTTTT MOQGAD      TELAPSE        5.22 TCPU        4.20
 TTTTTTTTTTTTTTTTTTTTTTTTTTTTTT SHELLX2     TELAPSE        5.47 TCPU        4.44
 TTTTTTTTTTTTTTTTTTTTTTTTTTTTTT MONMO3      TELAPSE        5.69 TCPU        4.66
 NUMERICALLY INTEGRATED DENSITY     89.9999472229
 TTTTTTTTTTTTTTTTTTTTTTTTTTTTTT NUMDFT      TELAPSE        6.75 TCPU        5.72
 CYC   2 ETOT(AU) -1.316451190902E+03 DETOT -2.88E-01 tst  1.35E-02 PX  1.51E-01
 TTTTTTTTTTTTTTTTTTTTTTTTTTTTTT FDIK        TELAPSE        6.80 TCPU        5.76
 INSULATING STATE
 TOP OF VALENCE BANDS -    BAND     45; K    3; EIG -2.4587770E-01 AU
 TOP OF VALENCE BANDS -    BAND     45; K    1; EIG -2.5351434E-01 AU
 BOTTOM OF VIRTUAL BANDS - BAND     46; K    1; EIG -2.9164696E-02 AU
 TTTTTTTTTTTTTTTTTTTTTTTTTTTTTT PDIG        TELAPSE        6.81 TCPU        5.78
 TTTTTTTTTTTTTTTTTTTTTTTTTTTTTT MOQGAD      TELAPSE        6.82 TCPU        5.79
 TTTTTTTTTTTTTTTTTTTTTTTTTTTTTT SHELLX2     TELAPSE        7.06 TCPU        6.03
 TTTTTTTTTTTTTTTTTTTTTTTTTTTTTT MONMO3      TELAPSE        7.28 TCPU        6.25
 NUMERICALLY INTEGRATED DENSITY     89.9999483941
 TTTTTTTTTTTTTTTTTTTTTTTTTTTTTT NUMDFT      TELAPSE        8.34 TCPU        7.31
 CYC   3 ETOT(AU) -1.316482947134E+03 DETOT -3.18E-02 tst  3.66E-04 PX  4.57E-02
 TTTTTTTTTTTTTTTTTTTTTTTTTTTTTT FDIK        TELAPSE        8.38 TCPU        7.35
 INSULATING STATE
 TOP OF VALENCE BANDS -    BAND     45; K    3; EIG -2.3611217E-01 AU
 TOP OF VALENCE BANDS -    BAND     45; K    1; EIG -2.4402185E-01 AU
 BOTTOM OF VIRTUAL BANDS - BAND     46; K    1; EIG -2.5003645E-02 AU
 TTTTTTTTTTTTTTTTTTTTTTTTTTTTTT PDIG        TELAPSE        8.39 TCPU        7.36
 TTTTTTTTTTTTTTTTTTTTTTTTTTTTTT MOQGAD      TELAPSE        8.40 TCPU        7.37
 TTTTTTTTTTTTTTTTTTTTTTTTTTTTTT SHELLX2     TELAPSE        8.64 TCPU        7.62
 TTTTTTTTTTTTTTTTTTTTTTTTTTTTTT MONMO3      TELAPSE        8.86 TCPU        7.83
 NUMERICALLY INTEGRATED DENSITY     89.9999482826
 TTTTTTTTTTTTTTTTTTTTTTTTTTTTTT NUMDFT      TELAPSE        9.93 TCPU        8.90
 CYC   4 ETOT(AU) -1.316483169439E+03 DETOT -2.22E-04 tst  1.80E-05 PX  4.02E-03
 TTTTTTTTTTTTTTTTTTTTTTTTTTTTTT FDIK        TELAPSE        9.97 TCPU        8.94
 INSULATING STATE
 TOP OF VALENCE BANDS -    BAND     45; K    3; EIG -2.3222113E-01 AU
 TOP OF VALENCE BANDS -    BAND     45; K    1; EIG -2.4026149E-01 AU
 BOTTOM OF VIRTUAL BANDS - BAND     46; K    1; EIG -2.3544622E-02 AU
 TTTTTTTTTTTTTTTTTTTTTTTTTTTTTT PDIG        TELAPSE        9.98 TCPU        8.95
 TTTTTTTTTTTTTTTTTTTTTTTTTTTTTT MOQGAD      TELAPSE        9.99 TCPU        8.96
 TTTTTTTTTTTTTTTTTTTTTTTTTTTTTT SHELLX2     TELAPSE       10.23 TCPU        9.20
 TTTTTTTTTTTTTTTTTTTTTTTTTTTTTT MONMO3      TELAPSE       10.45 TCPU        9.42
 NUMERICALLY INTEGRATED DENSITY     89.9999479222
 TTTTTTTTTTTTTTTTTTTTTTTTTTTTTT NUMDFT      TELAPSE       11.51 TCPU       10.48
 CYC   5 ETOT(AU) -1.316483364721E+03 DETOT -1.95E-04 tst  1.67E-05 PX  4.11E-03
 TTTTTTTTTTTTTTTTTTTTTTTTTTTTTT FDIK        TELAPSE       11.55 TCPU       10.52
 INSULATING STATE
 TOP OF VALENCE BANDS -    BAND     45; K    3; EIG -2.3469512E-01 AU
 TOP OF VALENCE BANDS -    BAND     45; K    1; EIG -2.4267177E-01 AU
 BOTTOM OF VIRTUAL BANDS - BAND     46; K    1; EIG -2.4874562E-02 AU
 TTTTTTTTTTTTTTTTTTTTTTTTTTTTTT PDIG        TELAPSE       11.56 TCPU       10.53
 TTTTTTTTTTTTTTTTTTTTTTTTTTTTTT MOQGAD      TELAPSE       11.56 TCPU       10.54
 TTTTTTTTTTTTTTTTTTTTTTTTTTTTTT SHELLX2     TELAPSE       11.81 TCPU       10.78
 TTTTTTTTTTTTTTTTTTTTTTTTTTTTTT MONMO3      TELAPSE       12.03 TCPU       11.00
 NUMERICALLY INTEGRATED DENSITY     89.9999478552
 TTTTTTTTTTTTTTTTTTTTTTTTTTTTTT NUMDFT      TELAPSE       13.10 TCPU       12.07
 CYC   6 ETOT(AU) -1.316483401012E+03 DETOT -3.63E-05 tst  4.45E-06 PX  1.02E-03
 TTTTTTTTTTTTTTTTTTTTTTTTTTTTTT FDIK        TELAPSE       13.13 TCPU       12.10
 INSULATING STATE
 TOP OF VALENCE BANDS -    BAND     45; K    3; EIG -2.3490122E-01 AU
 TOP OF VALENCE BANDS -    BAND     45; K    1; EIG -2.4287781E-01 AU
 BOTTOM OF VIRTUAL BANDS - BAND     46; K    1; EIG -2.5102910E-02 AU
 TTTTTTTTTTTTTTTTTTTTTTTTTTTTTT PDIG        TELAPSE       13.15 TCPU       12.11
 TTTTTTTTTTTTTTTTTTTTTTTTTTTTTT MOQGAD      TELAPSE       13.15 TCPU       12.12
 TTTTTTTTTTTTTTTTTTTTTTTTTTTTTT SHELLX2     TELAPSE       13.40 TCPU       12.37
 TTTTTTTTTTTTTTTTTTTTTTTTTTTTTT MONMO3      TELAPSE       13.62 TCPU       12.58
 NUMERICALLY INTEGRATED DENSITY     89.9999478146
 TTTTTTTTTTTTTTTTTTTTTTTTTTTTTT NUMDFT      TELAPSE       14.68 TCPU       13.64
 CYC   7 ETOT(AU) -1.316483407950E+03 DETOT -6.94E-06 tst  1.96E-06 PX  5.16E-04
 TTTTTTTTTTTTTTTTTTTTTTTTTTTTTT FDIK        TELAPSE       14.71 TCPU       13.68
 INSULATING STATE
 TOP OF VALENCE BANDS -    BAND     45; K    3; EIG -2.3495547E-01 AU
 TOP OF VALENCE BANDS -    BAND     45; K    1; EIG -2.4293324E-01 AU
 BOTTOM OF VIRTUAL BANDS - BAND     46; K    1; EIG -2.5193867E-02 AU
 TTTTTTTTTTTTTTTTTTTTTTTTTTTTTT PDIG        TELAPSE       14.72 TCPU       13.69
 TTTTTTTTTTTTTTTTTTTTTTTTTTTTTT MOQGAD      TELAPSE       14.73 TCPU       13.70
 TTTTTTTTTTTTTTTTTTTTTTTTTTTTTT SHELLX2     TELAPSE       14.98 TCPU       13.94
 TTTTTTTTTTTTTTTTTTTTTTTTTTTTTT MONMO3      TELAPSE       15.19 TCPU       14.16
 NUMERICALLY INTEGRATED DENSITY     89.9999477869
 TTTTTTTTTTTTTTTTTTTTTTTTTTTTTT NUMDFT      TELAPSE       16.26 TCPU       15.22
 CYC   8 ETOT(AU) -1.316483409396E+03 DETOT -1.45E-06 tst  8.83E-07 PX  3.65E-04
 TTTTTTTTTTTTTTTTTTTTTTTTTTTTTT FDIK        TELAPSE       16.29 TCPU       15.26
 INSULATING STATE
 TOP OF VALENCE BANDS -    BAND     45; K    3; EIG -2.3507131E-01 AU
 TOP OF VALENCE BANDS -    BAND     45; K    1; EIG -2.4304693E-01 AU
 BOTTOM OF VIRTUAL BANDS - BAND     46; K    1; EIG -2.5280737E-02 AU
 TTTTTTTTTTTTTTTTTTTTTTTTTTTTTT PDIG        TELAPSE       16.31 TCPU       15.27
 TTTTTTTTTTTTTTTTTTTTTTTTTTTTTT MOQGAD      TELAPSE       16.31 TCPU       15.28
 TTTTTTTTTTTTTTTTTTTTTTTTTTTTTT SHELLX2     TELAPSE       16.56 TCPU       15.52
 TTTTTTTTTTTTTTTTTTTTTTTTTTTTTT MONMO3      TELAPSE       16.78 TCPU       15.74
 NUMERICALLY INTEGRATED DENSITY     89.9999477742
 TTTTTTTTTTTTTTTTTTTTTTTTTTTTTT NUMDFT      TELAPSE       17.83 TCPU       16.80
 CYC   9 ETOT(AU) -1.316483409647E+03 DETOT -2.51E-07 tst  3.67E-07 PX  1.68E-04
 TTTTTTTTTTTTTTTTTTTTTTTTTTTTTT FDIK        TELAPSE       17.87 TCPU       16.83
 INSULATING STATE
 TOP OF VALENCE BANDS -    BAND     45; K    3; EIG -2.3511586E-01 AU
 TOP OF VALENCE BANDS -    BAND     45; K    1; EIG -2.4309090E-01 AU
 BOTTOM OF VIRTUAL BANDS - BAND     46; K    1; EIG -2.5319813E-02 AU
 TTTTTTTTTTTTTTTTTTTTTTTTTTTTTT PDIG        TELAPSE       17.88 TCPU       16.85
 TTTTTTTTTTTTTTTTTTTTTTTTTTTTTT MOQGAD      TELAPSE       17.89 TCPU       16.85
 TTTTTTTTTTTTTTTTTTTTTTTTTTTTTT SHELLX2     TELAPSE       18.13 TCPU       17.10
 TTTTTTTTTTTTTTTTTTTTTTTTTTTTTT MONMO3      TELAPSE       18.35 TCPU       17.32
 NUMERICALLY INTEGRATED DENSITY     89.9999477673
 TTTTTTTTTTTTTTTTTTTTTTTTTTTTTT NUMDFT      TELAPSE       19.41 TCPU       18.37
 CYC  10 ETOT(AU) -1.316483409588E+03 DETOT  5.92E-08 tst  1.58E-07 PX  1.02E-04
 TTTTTTTTTTTTTTTTTTTTTTTTTTTTTT FDIK        TELAPSE       19.44 TCPU       18.41
 INSULATING STATE
 TOP OF VALENCE BANDS -    BAND     45; K    3; EIG -2.3513858E-01 AU
 TOP OF VALENCE BANDS -    BAND     45; K    1; EIG -2.4311335E-01 AU
 BOTTOM OF VIRTUAL BANDS - BAND     46; K    1; EIG -2.5340332E-02 AU
 TTTTTTTTTTTTTTTTTTTTTTTTTTTTTT PDIG        TELAPSE       19.45 TCPU       18.42
 TTTTTTTTTTTTTTTTTTTTTTTTTTTTTT MOQGAD      TELAPSE       19.46 TCPU       18.43
 TTTTTTTTTTTTTTTTTTTTTTTTTTTTTT SHELLX2     TELAPSE       19.71 TCPU       18.67
 TTTTTTTTTTTTTTTTTTTTTTTTTTTTTT MONMO3      TELAPSE       19.93 TCPU       18.89
 NUMERICALLY INTEGRATED DENSITY     89.9999477634
 TTTTTTTTTTTTTTTTTTTTTTTTTTTTTT NUMDFT      TELAPSE       20.98 TCPU       19.95
 CYC  11 ETOT(AU) -1.316483409461E+03 DETOT  1.27E-07 tst  6.79E-08 PX  6.10E-05
 TTTTTTTTTTTTTTTTTTTTTTTTTTTTTT FDIK        TELAPSE       21.01 TCPU       19.98
 INSULATING STATE
 TOP OF VALENCE BANDS -    BAND     45; K    3; EIG -2.3515277E-01 AU
 TOP OF VALENCE BANDS -    BAND     45; K    1; EIG -2.4312733E-01 AU
 BOTTOM OF VIRTUAL BANDS - BAND     46; K    1; EIG -2.5352397E-02 AU
 TTTTTTTTTTTTTTTTTTTTTTTTTTTTTT PDIG        TELAPSE       21.03 TCPU       19.99
 TTTTTTTTTTTTTTTTTTTTTTTTTTTTTT MOQGAD      TELAPSE       21.03 TCPU       20.00
 TTTTTTTTTTTTTTTTTTTTTTTTTTTTTT SHELLX2     TELAPSE       21.28 TCPU       20.25
 TTTTTTTTTTTTTTTTTTTTTTTTTTTTTT MONMO3      TELAPSE       21.50 TCPU       20.46
 NUMERICALLY INTEGRATED DENSITY     89.9999477613
 TTTTTTTTTTTTTTTTTTTTTTTTTTTTTT NUMDFT      TELAPSE       22.56 TCPU       21.52
 CYC  12 ETOT(AU) -1.316483409374E+03 DETOT  8.73E-08 tst  2.91E-08 PX  3.38E-05
 TTTTTTTTTTTTTTTTTTTTTTTTTTTTTT FDIK        TELAPSE       22.59 TCPU       21.56
 INSULATING STATE
 TOP OF VALENCE BANDS -    BAND     45; K    3; EIG -2.3516031E-01 AU
 TOP OF VALENCE BANDS -    BAND     45; K    1; EIG -2.4313478E-01 AU
 BOTTOM OF VIRTUAL BANDS - BAND     46; K    1; EIG -2.5358986E-02 AU
 TTTTTTTTTTTTTTTTTTTTTTTTTTTTTT PDIG        TELAPSE       22.61 TCPU       21.57
 TTTTTTTTTTTTTTTTTTTTTTTTTTTTTT MOQGAD      TELAPSE       22.61 TCPU       21.58
 TTTTTTTTTTTTTTTTTTTTTTTTTTTTTT SHELLX2     TELAPSE       22.86 TCPU       21.82
 TTTTTTTTTTTTTTTTTTTTTTTTTTTTTT MONMO3      TELAPSE       23.08 TCPU       22.04
 NUMERICALLY INTEGRATED DENSITY     89.9999477601
 TTTTTTTTTTTTTTTTTTTTTTTTTTTTTT NUMDFT      TELAPSE       24.13 TCPU       23.09
 CYC  13 ETOT(AU) -1.316483409312E+03 DETOT  6.22E-08 tst  1.25E-08 PX  2.03E-05
 TTTTTTTTTTTTTTTTTTTTTTTTTTTTTT FDIK        TELAPSE       24.16 TCPU       23.13
 INSULATING STATE
 TOP OF VALENCE BANDS -    BAND     45; K    3; EIG -2.3516460E-01 AU
 TOP OF VALENCE BANDS -    BAND     45; K    1; EIG -2.4313901E-01 AU
 BOTTOM OF VIRTUAL BANDS - BAND     46; K    1; EIG -2.5362700E-02 AU
 TTTTTTTTTTTTTTTTTTTTTTTTTTTTTT PDIG        TELAPSE       24.18 TCPU       23.15
 TTTTTTTTTTTTTTTTTTTTTTTTTTTTTT MOQGAD      TELAPSE       24.19 TCPU       23.15
 TTTTTTTTTTTTTTTTTTTTTTTTTTTTTT SHELLX2     TELAPSE       24.43 TCPU       23.40
 TTTTTTTTTTTTTTTTTTTTTTTTTTTTTT MONMO3      TELAPSE       24.65 TCPU       23.61
 NUMERICALLY INTEGRATED DENSITY     89.9999477594
 TTTTTTTTTTTTTTTTTTTTTTTTTTTTTT NUMDFT      TELAPSE       25.71 TCPU       24.67
 CYC  14 ETOT(AU) -1.316483409273E+03 DETOT  3.85E-08 tst  5.40E-09 PX  1.19E-05
 TTTTTTTTTTTTTTTTTTTTTTTTTTTTTT FDIK        TELAPSE       25.75 TCPU       24.71
 INSULATING STATE
 TOP OF VALENCE BANDS -    BAND     45; K    3; EIG -2.3516703E-01 AU
 TOP OF VALENCE BANDS -    BAND     45; K    1; EIG -2.4314142E-01 AU
 BOTTOM OF VIRTUAL BANDS - BAND     46; K    1; EIG -2.5364806E-02 AU
 TTTTTTTTTTTTTTTTTTTTTTTTTTTTTT PDIG        TELAPSE       25.76 TCPU       24.72
 TTTTTTTTTTTTTTTTTTTTTTTTTTTTTT MOQGAD      TELAPSE       25.77 TCPU       24.73
 TTTTTTTTTTTTTTTTTTTTTTTTTTTTTT SHELLX2     TELAPSE       26.02 TCPU       24.97
 TTTTTTTTTTTTTTTTTTTTTTTTTTTTTT MONMO3      TELAPSE       26.23 TCPU       25.19
 NUMERICALLY INTEGRATED DENSITY     89.9999477590
 TTTTTTTTTTTTTTTTTTTTTTTTTTTTTT NUMDFT      TELAPSE       27.29 TCPU       26.25
 CYC  15 ETOT(AU) -1.316483409249E+03 DETOT  2.39E-08 tst  2.33E-09 PX  6.92E-06
 TTTTTTTTTTTTTTTTTTTTTTTTTTTTTT FDIK        TELAPSE       27.32 TCPU       26.29
 INSULATING STATE
 TOP OF VALENCE BANDS -    BAND     45; K    3; EIG -2.3516840E-01 AU
 TOP OF VALENCE BANDS -    BAND     45; K    1; EIG -2.4314277E-01 AU
 BOTTOM OF VIRTUAL BANDS - BAND     46; K    1; EIG -2.5365996E-02 AU
 TTTTTTTTTTTTTTTTTTTTTTTTTTTTTT PDIG        TELAPSE       27.34 TCPU       26.30
 TTTTTTTTTTTTTTTTTTTTTTTTTTTTTT MOQGAD      TELAPSE       27.34 TCPU       26.31
 TTTTTTTTTTTTTTTTTTTTTTTTTTTTTT SHELLX2     TELAPSE       27.59 TCPU       26.55
 TTTTTTTTTTTTTTTTTTTTTTTTTTTTTT MONMO3      TELAPSE       27.81 TCPU       26.77
 NUMERICALLY INTEGRATED DENSITY     89.9999477588
 TTTTTTTTTTTTTTTTTTTTTTTTTTTTTT NUMDFT      TELAPSE       28.86 TCPU       27.83
 CYC  16 ETOT(AU) -1.316483409234E+03 DETOT  1.49E-08 tst  1.00E-09 PX  4.24E-06
 TTTTTTTTTTTTTTTTTTTTTTTTTTTTTT FDIK        TELAPSE       28.90 TCPU       27.86
 INSULATING STATE
 TOP OF VALENCE BANDS -    BAND     45; K    3; EIG -2.3516921E-01 AU
 TOP OF VALENCE BANDS -    BAND     45; K    1; EIG -2.4314357E-01 AU
 BOTTOM OF VIRTUAL BANDS - BAND     46; K    1; EIG -2.5366693E-02 AU
 TTTTTTTTTTTTTTTTTTTTTTTTTTTTTT PDIG        TELAPSE       28.91 TCPU       27.87
 TTTTTTTTTTTTTTTTTTTTTTTTTTTTTT MOQGAD      TELAPSE       28.92 TCPU       27.88
 TTTTTTTTTTTTTTTTTTTTTTTTTTTTTT SHELLX2     TELAPSE       29.16 TCPU       28.13
 TTTTTTTTTTTTTTTTTTTTTTTTTTTTTT MONMO3      TELAPSE       29.38 TCPU       28.34
 NUMERICALLY INTEGRATED DENSITY     89.9999477587
 TTTTTTTTTTTTTTTTTTTTTTTTTTTTTT NUMDFT      TELAPSE       30.48 TCPU       29.44
 CYC  17 ETOT(AU) -1.316483409225E+03 DETOT  8.80E-09 tst  4.33E-10 PX  2.46E-06
 TTTTTTTTTTTTTTTTTTTTTTTTTTTTTT FDIK        TELAPSE       30.51 TCPU       29.47
 INSULATING STATE
 TOP OF VALENCE BANDS -    BAND     45; K    3; EIG -2.3516966E-01 AU
 TOP OF VALENCE BANDS -    BAND     45; K    1; EIG -2.4314402E-01 AU
 BOTTOM OF VIRTUAL BANDS - BAND     46; K    1; EIG -2.5367087E-02 AU
 TTTTTTTTTTTTTTTTTTTTTTTTTTTTTT PDIG        TELAPSE       30.53 TCPU       29.49
 TTTTTTTTTTTTTTTTTTTTTTTTTTTTTT MOQGAD      TELAPSE       30.53 TCPU       29.49
 TTTTTTTTTTTTTTTTTTTTTTTTTTTTTT SHELLX2     TELAPSE       30.78 TCPU       29.74
 TTTTTTTTTTTTTTTTTTTTTTTTTTTTTT MONMO3      TELAPSE       31.00 TCPU       29.96
 NUMERICALLY INTEGRATED DENSITY     89.9999477586
 TTTTTTTTTTTTTTTTTTTTTTTTTTTTTT NUMDFT      TELAPSE       32.06 TCPU       31.01
 CYC  18 ETOT(AU) -1.316483409220E+03 DETOT  5.36E-09 tst  1.87E-10 PX  1.52E-06
 TTTTTTTTTTTTTTTTTTTTTTTTTTTTTT FDIK        TELAPSE       32.09 TCPU       31.05
 INSULATING STATE
 TOP OF VALENCE BANDS -    BAND     45; K    3; EIG -2.3516992E-01 AU
 TOP OF VALENCE BANDS -    BAND     45; K    1; EIG -2.4314428E-01 AU
 BOTTOM OF VIRTUAL BANDS - BAND     46; K    1; EIG -2.5367317E-02 AU
 TTTTTTTTTTTTTTTTTTTTTTTTTTTTTT PDIG        TELAPSE       32.10 TCPU       31.06
 TTTTTTTTTTTTTTTTTTTTTTTTTTTTTT MOQGAD      TELAPSE       32.11 TCPU       31.07
 TTTTTTTTTTTTTTTTTTTTTTTTTTTTTT SHELLX2     TELAPSE       32.36 TCPU       31.31
 TTTTTTTTTTTTTTTTTTTTTTTTTTTTTT MONMO3      TELAPSE       32.57 TCPU       31.53
 NUMERICALLY INTEGRATED DENSITY     89.9999477586
 TTTTTTTTTTTTTTTTTTTTTTTTTTTTTT NUMDFT      TELAPSE       33.63 TCPU       32.59
 CYC  19 ETOT(AU) -1.316483409217E+03 DETOT  3.41E-09 tst  8.08E-11 PX  9.12E-07
 TTTTTTTTTTTTTTTTTTTTTTTTTTTTTT FDIK        TELAPSE       33.66 TCPU       32.61
 INSULATING STATE
 TOP OF VALENCE BANDS -    BAND     45; K    3; EIG -2.3517008E-01 AU
 TOP OF VALENCE BANDS -    BAND     45; K    1; EIG -2.4314444E-01 AU
 BOTTOM OF VIRTUAL BANDS - BAND     46; K    1; EIG -2.5367453E-02 AU
 TTTTTTTTTTTTTTTTTTTTTTTTTTTTTT PDIG        TELAPSE       33.67 TCPU       32.63
 TTTTTTTTTTTTTTTTTTTTTTTTTTTTTT MOQGAD      TELAPSE       33.68 TCPU       32.63
 TTTTTTTTTTTTTTTTTTTTTTTTTTTTTT SHELLX2     TELAPSE       33.93 TCPU       32.88
 TTTTTTTTTTTTTTTTTTTTTTTTTTTTTT MONMO3      TELAPSE       34.44 TCPU       33.40
 NUMERICALLY INTEGRATED DENSITY     89.9999477586
 TTTTTTTTTTTTTTTTTTTTTTTTTTTTTT NUMDFT      TELAPSE       35.50 TCPU       34.45
 CYC  20 ETOT(AU) -1.316483409215E+03 DETOT  1.97E-09 tst  3.68E-11 PX  5.82E-07
 TTTTTTTTTTTTTTTTTTTTTTTTTTTTTT FDIK        TELAPSE       35.52 TCPU       34.48
 INSULATING STATE
 TOP OF VALENCE BANDS -    BAND     45; K    3; EIG -2.3517018E-01 AU
 TOP OF VALENCE BANDS -    BAND     45; K    1; EIG -2.4314453E-01 AU
 BOTTOM OF VIRTUAL BANDS - BAND     46; K    1; EIG -2.5367532E-02 AU
 TTTTTTTTTTTTTTTTTTTTTTTTTTTTTT PDIG        TELAPSE       35.54 TCPU       34.49
 TTTTTTTTTTTTTTTTTTTTTTTTTTTTTT MOQGAD      TELAPSE       35.54 TCPU       34.50
 TTTTTTTTTTTTTTTTTTTTTTTTTTTTTT SHELLX2     TELAPSE       35.79 TCPU       34.75
 TTTTTTTTTTTTTTTTTTTTTTTTTTTTTT MONMO3      TELAPSE       36.01 TCPU       34.97
 NUMERICALLY INTEGRATED DENSITY     89.9999477585
 TTTTTTTTTTTTTTTTTTTTTTTTTTTTTT NUMDFT      TELAPSE       37.08 TCPU       36.03
 CYC  21 ETOT(AU) -1.316483409213E+03 DETOT  1.24E-09 tst  1.82E-11 PX  3.57E-07
 TTTTTTTTTTTTTTTTTTTTTTTTTTTTTT FDIK        TELAPSE       37.11 TCPU       36.07
 INSULATING STATE
 TOP OF VALENCE BANDS -    BAND     45; K    3; EIG -2.3517024E-01 AU
 TOP OF VALENCE BANDS -    BAND     45; K    1; EIG -2.4314459E-01 AU
 BOTTOM OF VIRTUAL BANDS - BAND     46; K    1; EIG -2.5367578E-02 AU
 TTTTTTTTTTTTTTTTTTTTTTTTTTTTTT PDIG        TELAPSE       37.12 TCPU       36.08
 TTTTTTTTTTTTTTTTTTTTTTTTTTTTTT MOQGAD      TELAPSE       37.13 TCPU       36.09
 TTTTTTTTTTTTTTTTTTTTTTTTTTTTTT SHELLX2     TELAPSE       37.38 TCPU       36.33
 TTTTTTTTTTTTTTTTTTTTTTTTTTTTTT MONMO3      TELAPSE       37.59 TCPU       36.55
 NUMERICALLY INTEGRATED DENSITY     89.9999477585
 TTTTTTTTTTTTTTTTTTTTTTTTTTTTTT NUMDFT      TELAPSE       38.66 TCPU       37.61
 CYC  22 ETOT(AU) -1.316483409213E+03 DETOT  7.67E-10 tst  8.99E-12 PX  2.11E-07
 TTTTTTTTTTTTTTTTTTTTTTTTTTTTTT FDIK        TELAPSE       38.68 TCPU       37.64
 INSULATING STATE
 TOP OF VALENCE BANDS -    BAND     45; K    3; EIG -2.3517026E-01 AU
 TOP OF VALENCE BANDS -    BAND     45; K    1; EIG -2.4314461E-01 AU
 BOTTOM OF VIRTUAL BANDS - BAND     46; K    1; EIG -2.5367600E-02 AU
 TTTTTTTTTTTTTTTTTTTTTTTTTTTTTT PDIG        TELAPSE       38.70 TCPU       37.65
 TTTTTTTTTTTTTTTTTTTTTTTTTTTTTT MOQGAD      TELAPSE       38.70 TCPU       37.66
 TTTTTTTTTTTTTTTTTTTTTTTTTTTTTT SHELLX2     TELAPSE       38.95 TCPU       37.90
 TTTTTTTTTTTTTTTTTTTTTTTTTTTTTT MONMO3      TELAPSE       39.17 TCPU       38.12
 NUMERICALLY INTEGRATED DENSITY     89.9999477585
 TTTTTTTTTTTTTTTTTTTTTTTTTTTTTT NUMDFT      TELAPSE       40.24 TCPU       39.19
 CYC  23 ETOT(AU) -1.316483409212E+03 DETOT  4.54E-10 tst  4.46E-12 PX  1.30E-07
 TTTTTTTTTTTTTTTTTTTTTTTTTTTTTT FDIK        TELAPSE       40.27 TCPU       39.22
 INSULATING STATE
 TOP OF VALENCE BANDS -    BAND     45; K    3; EIG -2.3517029E-01 AU
 TOP OF VALENCE BANDS -    BAND     45; K    1; EIG -2.4314464E-01 AU
 BOTTOM OF VIRTUAL BANDS - BAND     46; K    1; EIG -2.5367620E-02 AU
 TTTTTTTTTTTTTTTTTTTTTTTTTTTTTT PDIG        TELAPSE       40.28 TCPU       39.23
 TTTTTTTTTTTTTTTTTTTTTTTTTTTTTT MOQGAD      TELAPSE       40.29 TCPU       39.24
 TTTTTTTTTTTTTTTTTTTTTTTTTTTTTT SHELLX2     TELAPSE       40.53 TCPU       39.49
 TTTTTTTTTTTTTTTTTTTTTTTTTTTTTT MONMO3      TELAPSE       40.75 TCPU       39.70
 NUMERICALLY INTEGRATED DENSITY     89.9999477585
 TTTTTTTTTTTTTTTTTTTTTTTTTTTTTT NUMDFT      TELAPSE       41.82 TCPU       40.77
 CYC  24 ETOT(AU) -1.316483409212E+03 DETOT  3.03E-10 tst  2.21E-12 PX  8.53E-08
 TTTTTTTTTTTTTTTTTTTTTTTTTTTTTT FDIK        TELAPSE       41.85 TCPU       40.80
 INSULATING STATE
 TOP OF VALENCE BANDS -    BAND     45; K    3; EIG -2.3517030E-01 AU
 TOP OF VALENCE BANDS -    BAND     45; K    1; EIG -2.4314465E-01 AU
 BOTTOM OF VIRTUAL BANDS - BAND     46; K    1; EIG -2.5367630E-02 AU
 TTTTTTTTTTTTTTTTTTTTTTTTTTTTTT PDIG        TELAPSE       41.86 TCPU       40.81
 TTTTTTTTTTTTTTTTTTTTTTTTTTTTTT MOQGAD      TELAPSE       41.87 TCPU       40.81
 TTTTTTTTTTTTTTTTTTTTTTTTTTTTTT SHELLX2     TELAPSE       42.11 TCPU       41.06
 TTTTTTTTTTTTTTTTTTTTTTTTTTTTTT MONMO3      TELAPSE       42.33 TCPU       41.28
 NUMERICALLY INTEGRATED DENSITY     89.9999477585
 TTTTTTTTTTTTTTTTTTTTTTTTTTTTTT NUMDFT      TELAPSE       43.39 TCPU       42.34
 CYC  25 ETOT(AU) -1.316483409212E+03 DETOT  1.67E-10 tst  1.09E-12 PX  5.36E-08
 TTTTTTTTTTTTTTTTTTTTTTTTTTTTTT FDIK        TELAPSE       43.42 TCPU       42.37
 INSULATING STATE
 TOP OF VALENCE BANDS -    BAND     45; K    3; EIG -2.3517030E-01 AU
 TOP OF VALENCE BANDS -    BAND     45; K    1; EIG -2.4314466E-01 AU
 BOTTOM OF VIRTUAL BANDS - BAND     46; K    1; EIG -2.5367634E-02 AU
 TTTTTTTTTTTTTTTTTTTTTTTTTTTTTT PDIG        TELAPSE       43.43 TCPU       42.38
 TTTTTTTTTTTTTTTTTTTTTTTTTTTTTT MOQGAD      TELAPSE       43.44 TCPU       42.39
 TTTTTTTTTTTTTTTTTTTTTTTTTTTTTT SHELLX2     TELAPSE       43.68 TCPU       42.63
 TTTTTTTTTTTTTTTTTTTTTTTTTTTTTT MONMO3      TELAPSE       43.90 TCPU       42.85
 NUMERICALLY INTEGRATED DENSITY     89.9999477585
 TTTTTTTTTTTTTTTTTTTTTTTTTTTTTT NUMDFT      TELAPSE       44.97 TCPU       43.92
 CYC  26 ETOT(AU) -1.316483409212E+03 DETOT  9.82E-11 tst  5.43E-13 PX  3.55E-08
 TTTTTTTTTTTTTTTTTTTTTTTTTTTTTT FDIK        TELAPSE       45.00 TCPU       43.95
 INSULATING STATE
 TOP OF VALENCE BANDS -    BAND     45; K    3; EIG -2.3517031E-01 AU
 TOP OF VALENCE BANDS -    BAND     45; K    1; EIG -2.4314466E-01 AU
 BOTTOM OF VIRTUAL BANDS - BAND     46; K    1; EIG -2.5367636E-02 AU
 TTTTTTTTTTTTTTTTTTTTTTTTTTTTTT PDIG        TELAPSE       45.01 TCPU       43.96
 TTTTTTTTTTTTTTTTTTTTTTTTTTTTTT MOQGAD      TELAPSE       45.02 TCPU       43.97
 TTTTTTTTTTTTTTTTTTTTTTTTTTTTTT SHELLX2     TELAPSE       45.26 TCPU       44.21
 ::: PSEUDO TOTAL   ENERGY                        -1.2055037113888E+03
 ::: VIRIAL COEFFICIENT                            1.0428270398690E+00
 TTTTTTTTTTTTTTTTTTTTTTTTTTTTTT MONMO3      TELAPSE       45.48 TCPU       44.43
 NUMERICALLY INTEGRATED DENSITY     89.9999477585
 TTTTTTTTTTTTTTTTTTTTTTTTTTTTTT NUMDFT      TELAPSE       46.54 TCPU       45.49
 CYC  27 ETOT(AU) -1.316483409212E+03 DETOT  8.94E-11 tst  2.69E-13 PX  3.55E-08

 == SCF ENDED - CONVERGENCE ON ENERGY      E(AU) -1.3164834092115E+03 CYCLES  27


 ENERGY EXPRESSION=HARTREE+FOCK EXCH*0.00000+(PBESOL     EXCH)*1.00000+PBESOL     CORR


 TOTAL ENERGY(DFT)(AU)( 27) -1.3164834092115E+03 DE 8.9E-11 tester 2.7E-13
 TTTTTTTTTTTTTTTTTTTTTTTTTTTTTT EDFT        TELAPSE       46.54 TCPU       45.49
 INSULATING STATE
 TOP OF VALENCE BANDS -    BAND     45; K    3; EIG -2.3517031E-01 AU
 TOP OF VALENCE BANDS -    BAND     45; K    1; EIG -2.4314467E-01 AU
 BOTTOM OF VIRTUAL BANDS - BAND     46; K    1; EIG -2.5367640E-02 AU
 EIGENVECTORS IN FORTRAN UNIT 10
 EEEEEEEEEE SCF TERMINATION  DATE 16 01 2014 TIME 10:45:57.9

     *********************************************************************
     * ***************************************************************** *
     * *        COUPLED-PERTURBED KOHN-SHAM CALCULATION (CPKS)         * *
     * *        REFERENCES TO BE QUOTED WHEN USING THIS MODULE:        * *
     * *        (1) M. Ferrero, M. Rerat, R. Orlando, R.Dovesi,        * *
     * *            J. Comput. Chem. 29 (2008), 1450;                  * *
     * *            J. Chem. Phys. 128 (2008), 014110.                 * *
     * *        (2) M. Ferrero, M. Rerat, B. Kirtman, R. Dovesi,       * *
     * *            J. Chem. Phys. 129 (2008), 244110.                 * *
     * ***************************************************************** *
     *********************************************************************

 INFORMATION **** CP_DRIVER **** CONVERGENCE ON ALPHA: 10**          -3
 INFORMATION **** CP_DRIVER **** MAX NUMBER OF CPHF/CPKS CYCLES         200
 INFORMATION **** CP_DRIVER **** CPHF/CPKS DAMPING PERCENTAGE:          50
 STATIC FIELD (OR H*NU < 1E-15 HA)

 *******************************************************************************

 ELECTRIC FIELD APPLIED ALONG CARTESIAN DIRECTION X

 *******************************************************************************
 THE NUMBER OF SYMMETRY OPERATORS HAS BEEN REDUCED FROM  6 TO  1

 NEW GRID IN RECIPROCAL SPACE
 *******************************************************************************
 POINTS IN THE IBZ                  14 SHRINKING FACTORS               3  3  3
 *******************************************************************************
 *** K POINTS COORDINATES (OBLIQUE COORDINATES IN UNITS OF SHRINK FAC. )
   1-R(  0  0  0)   2-C(  1  0  0)   3-C(  2  1  0)   4-C(  0  2  0)
   5-C(  1  1  0)   6-C(  0  0  1)   7-C(  1  0  1)   8-C(  2  1  1)
   9-C(  0  2  1)  10-C(  2  0  1)  11-C(  1  2  1)  12-C(  0  1  1)
  13-C(  1  1  1)  14-C(  1  1  2)

 GCALCO - MAX INDICES DIRECT LATTICE VECTOR    16    16    12
 NO.OF VECTORS CREATED 6999 STARS  380 RMAX   107.55899 BOHR
 TTTTTTTTTTTTTTTTTTTTTTTTTTTTTT gordsh1     TELAPSE       46.89 TCPU       45.84

 MATRIX SIZE: P(G)   63492, F(G)   32043, P(G) IRR   32943, F(G) IRR   32943
 MAX G-VECTOR INDEX FOR 1- AND 2-ELECTRON INTEGRALS  71

 TTTTTTTTTTTTTTTTTTTTTTTTTTTTTT INPUT       TELAPSE       47.55 TCPU       46.49
 TTTTTTTTTTTTTTTTTTTTTTTTTTTTTT SYMM        TELAPSE       47.55 TCPU       46.49

 ***** NEW REFERENCE GEOMETRY *****
 TTTTTTTTTTTTTTTTTTTTTTTTTTTTTT INT_SCREEN  TELAPSE       47.55 TCPU       46.50
 INFORMATION **** EXCBUF **** EXCH. BIPO BUFFER: WORDS USED =           0

 DFT PARAMETERS

     ATOM       ELECTRONS   NET CHARGE   R(ANGSTROM)
   1  14  SI     14.0000      0.0000     1.17000000
   4   8  O       8.0000      0.0000     0.74000000

 SIZE OF GRID=     263886
 TTTTTTTTTTTTTTTTTTTTTTTTTTTTTT MAKE_GRID2  TELAPSE       49.15 TCPU       48.10
 BECKE WEIGHT FUNCTION
 RADSAFE =     2.00
 TOLERANCES - DENSITY:10**- 6; POTENTIAL:10**- 9; GRID WGT:10**-14

 RADIAL INTEGRATION  - INTERVALS (POINTS,UPPER LIMIT):            1( 75,  4.0*R)

 ANGULAR INTEGRATION - INTERVALS (ACCURACY LEVEL [N. POINTS] UPPER LIMIT):
  1(  4[  86]   0.2)  2(  8[ 194]   0.5)  3( 12[ 350]   0.9)  4( 16[ 974]   3.5)
  5( 12[ 350]9999.0)
 TTTTTTTTTTTTTTTTTTTTTTTTTTTTTT INT_CALC    TELAPSE       49.19 TCPU       48.14
 CYCLE   0   ALPHA   92.066027  EPSILON    2.544307  DELTA    9.2066E+01
 TTTTTTTTTTTTTTTTTTTTTTTTTTTTTT MOQGAD      TELAPSE       52.73 TCPU       51.68
 TTTTTTTTTTTTTTTTTTTTTTTTTTTTTT CP_MONMON   TELAPSE       55.27 TCPU       54.21
 CYCLE   1   ALPHA   84.442783  EPSILON    2.416435  DELTA   -7.6232E+00
 TTTTTTTTTTTTTTTTTTTTTTTTTTTTTT MOQGAD      TELAPSE       56.90 TCPU       55.84
 TTTTTTTTTTTTTTTTTTTTTTTTTTTTTT CP_MONMON   TELAPSE       59.42 TCPU       58.37
 CYCLE   2   ALPHA   86.129835  EPSILON    2.444734  DELTA    1.6871E+00
 TTTTTTTTTTTTTTTTTTTTTTTTTTTTTT MOQGAD      TELAPSE       61.05 TCPU       60.00
 TTTTTTTTTTTTTTTTTTTTTTTTTTTTTT CP_MONMON   TELAPSE       63.58 TCPU       62.52
 CYCLE   3   ALPHA   83.977709  EPSILON    2.408634  DELTA   -2.1521E+00
 TTTTTTTTTTTTTTTTTTTTTTTTTTTTTT MOQGAD      TELAPSE       65.21 TCPU       64.15
 TTTTTTTTTTTTTTTTTTTTTTTTTTTTTT CP_MONMON   TELAPSE       67.73 TCPU       66.68
 CYCLE   4   ALPHA   84.938259  EPSILON    2.424746  DELTA    9.6055E-01
 TTTTTTTTTTTTTTTTTTTTTTTTTTTTTT MOQGAD      TELAPSE       69.36 TCPU       68.30
 TTTTTTTTTTTTTTTTTTTTTTTTTTTTTT CP_MONMON   TELAPSE       71.89 TCPU       70.83
 CYCLE   5   ALPHA   84.171186  EPSILON    2.411880  DELTA   -7.6707E-01
 TTTTTTTTTTTTTTTTTTTTTTTTTTTTTT MOQGAD      TELAPSE       73.52 TCPU       72.46
 TTTTTTTTTTTTTTTTTTTTTTTTTTTTTT CP_MONMON   TELAPSE       76.05 TCPU       74.99
 CYCLE   6   ALPHA   84.596324  EPSILON    2.419011  DELTA    4.2514E-01
 TTTTTTTTTTTTTTTTTTTTTTTTTTTTTT MOQGAD      TELAPSE       77.68 TCPU       76.62
 TTTTTTTTTTTTTTTTTTTTTTTTTTTTTT CP_MONMON   TELAPSE       80.21 TCPU       79.15
 CYCLE   7   ALPHA   84.298914  EPSILON    2.414022  DELTA   -2.9741E-01
 TTTTTTTTTTTTTTTTTTTTTTTTTTTTTT MOQGAD      TELAPSE       81.84 TCPU       80.78
 TTTTTTTTTTTTTTTTTTTTTTTTTTTTTT CP_MONMON   TELAPSE       84.37 TCPU       83.31
 CYCLE   8   ALPHA   84.477927  EPSILON    2.417025  DELTA    1.7901E-01
 TTTTTTTTTTTTTTTTTTTTTTTTTTTTTT MOQGAD      TELAPSE       86.00 TCPU       84.93
 TTTTTTTTTTTTTTTTTTTTTTTTTTTTTT CP_MONMON   TELAPSE       88.52 TCPU       87.46
 CYCLE   9   ALPHA   84.358632  EPSILON    2.415024  DELTA   -1.1929E-01
 TTTTTTTTTTTTTTTTTTTTTTTTTTTTTT MOQGAD      TELAPSE       90.15 TCPU       89.09
 TTTTTTTTTTTTTTTTTTTTTTTTTTTTTT CP_MONMON   TELAPSE       92.68 TCPU       91.61
 CYCLE  10   ALPHA   84.433083  EPSILON    2.416273  DELTA    7.4451E-02
 TTTTTTTTTTTTTTTTTTTTTTTTTTTTTT MOQGAD      TELAPSE       94.31 TCPU       93.25
 TTTTTTTTTTTTTTTTTTTTTTTTTTTTTT CP_MONMON   TELAPSE       96.84 TCPU       95.77
 CYCLE  11   ALPHA   84.384431  EPSILON    2.415457  DELTA   -4.8652E-02
 TTTTTTTTTTTTTTTTTTTTTTTTTTTTTT MOQGAD      TELAPSE       98.47 TCPU       97.40
 TTTTTTTTTTTTTTTTTTTTTTTTTTTTTT CP_MONMON   TELAPSE      100.99 TCPU       99.93
 CYCLE  12   ALPHA   84.415325  EPSILON    2.415975  DELTA    3.0894E-02
 TTTTTTTTTTTTTTTTTTTTTTTTTTTTTT MOQGAD      TELAPSE      102.62 TCPU      101.56
 TTTTTTTTTTTTTTTTTTTTTTTTTTTTTT CP_MONMON   TELAPSE      105.15 TCPU      104.08
 CYCLE  13   ALPHA   84.395294  EPSILON    2.415639  DELTA   -2.0031E-02
 TTTTTTTTTTTTTTTTTTTTTTTTTTTTTT MOQGAD      TELAPSE      106.78 TCPU      105.71
 TTTTTTTTTTTTTTTTTTTTTTTTTTTTTT CP_MONMON   TELAPSE      109.31 TCPU      108.24
 CYCLE  14   ALPHA   84.408126  EPSILON    2.415854  DELTA    1.2831E-02
 TTTTTTTTTTTTTTTTTTTTTTTTTTTTTT MOQGAD      TELAPSE      110.93 TCPU      109.87
 TTTTTTTTTTTTTTTTTTTTTTTTTTTTTT CP_MONMON   TELAPSE      113.46 TCPU      112.39
 CYCLE  15   ALPHA   84.399829  EPSILON    2.415715  DELTA   -8.2964E-03
 TTTTTTTTTTTTTTTTTTTTTTTTTTTTTT MOQGAD      TELAPSE      115.09 TCPU      114.02
 TTTTTTTTTTTTTTTTTTTTTTTTTTTTTT CP_MONMON   TELAPSE      117.62 TCPU      116.55
 CYCLE  16   ALPHA   84.405168  EPSILON    2.415804  DELTA    5.3393E-03
 TTTTTTTTTTTTTTTTTTTTTTTTTTTTTT MOQGAD      TELAPSE      119.25 TCPU      118.18
 TTTTTTTTTTTTTTTTTTTTTTTTTTTTTT CP_MONMON   TELAPSE      121.77 TCPU      120.71
 CYCLE  17   ALPHA   84.401718  EPSILON    2.415747  DELTA   -3.4501E-03
 TTTTTTTTTTTTTTTTTTTTTTTTTTTTTT MOQGAD      TELAPSE      123.40 TCPU      122.34
 TTTTTTTTTTTTTTTTTTTTTTTTTTTTTT CP_MONMON   TELAPSE      125.93 TCPU      124.86
 CYCLE  18   ALPHA   84.403945  EPSILON    2.415784  DELTA    2.2261E-03
 TTTTTTTTTTTTTTTTTTTTTTTTTTTTTT MOQGAD      TELAPSE      127.56 TCPU      126.49
 TTTTTTTTTTTTTTTTTTTTTTTTTTTTTT CP_MONMON   TELAPSE      130.09 TCPU      129.02
 CYCLE  19   ALPHA   84.402506  EPSILON    2.415760  DELTA   -1.4388E-03
 TTTTTTTTTTTTTTTTTTTTTTTTTTTTTT MOQGAD      TELAPSE      131.71 TCPU      130.64
 TTTTTTTTTTTTTTTTTTTTTTTTTTTTTT CP_MONMON   TELAPSE      134.24 TCPU      133.17
 CYCLE  20   ALPHA   84.403436  EPSILON    2.415775  DELTA    9.2982E-04
 TTTTTTTTTTTTTTTTTTTTTTTTTTTTTT CP_SC       TELAPSE      134.57 TCPU      133.50

 *******************************************************************************

 ELECTRIC FIELD APPLIED ALONG CARTESIAN DIRECTION Y

 *******************************************************************************
 THE NUMBER OF SYMMETRY OPERATORS HAS BEEN REDUCED FROM  6 TO  1

 NEW GRID IN RECIPROCAL SPACE
 *******************************************************************************
 POINTS IN THE IBZ                  14 SHRINKING FACTORS               3  3  3
 *******************************************************************************
 *** K POINTS COORDINATES (OBLIQUE COORDINATES IN UNITS OF SHRINK FAC. )
   1-R(  0  0  0)   2-C(  1  0  0)   3-C(  2  1  0)   4-C(  0  2  0)
   5-C(  1  1  0)   6-C(  0  0  1)   7-C(  1  0  1)   8-C(  2  1  1)
   9-C(  0  2  1)  10-C(  2  0  1)  11-C(  1  2  1)  12-C(  0  1  1)
  13-C(  1  1  1)  14-C(  1  1  2)

 GCALCO - MAX INDICES DIRECT LATTICE VECTOR    16    16    12
 NO.OF VECTORS CREATED 6999 STARS  380 RMAX   107.55899 BOHR
 TTTTTTTTTTTTTTTTTTTTTTTTTTTTTT gordsh1     TELAPSE      136.46 TCPU      135.39

 MATRIX SIZE: P(G)   63492, F(G)   32043, P(G) IRR   32943, F(G) IRR   32943
 MAX G-VECTOR INDEX FOR 1- AND 2-ELECTRON INTEGRALS  71

 TTTTTTTTTTTTTTTTTTTTTTTTTTTTTT INPUT       TELAPSE      136.59 TCPU      135.52
 TTTTTTTTTTTTTTTTTTTTTTTTTTTTTT SYMM        TELAPSE      136.59 TCPU      135.52

 ***** NEW REFERENCE GEOMETRY *****
 TTTTTTTTTTTTTTTTTTTTTTTTTTTTTT INT_SCREEN  TELAPSE      136.59 TCPU      135.52
 INFORMATION **** EXCBUF **** EXCH. BIPO BUFFER: WORDS USED =           0

 DFT PARAMETERS

     ATOM       ELECTRONS   NET CHARGE   R(ANGSTROM)
   1  14  SI     14.0000      0.0000     1.17000000
   4   8  O       8.0000      0.0000     0.74000000

 SIZE OF GRID=     263886
 TTTTTTTTTTTTTTTTTTTTTTTTTTTTTT MAKE_GRID2  TELAPSE      138.22 TCPU      137.14
 BECKE WEIGHT FUNCTION
 RADSAFE =     2.00
 TOLERANCES - DENSITY:10**- 6; POTENTIAL:10**- 9; GRID WGT:10**-14

 RADIAL INTEGRATION  - INTERVALS (POINTS,UPPER LIMIT):            1( 75,  4.0*R)

 ANGULAR INTEGRATION - INTERVALS (ACCURACY LEVEL [N. POINTS] UPPER LIMIT):
  1(  4[  86]   0.2)  2(  8[ 194]   0.5)  3( 12[ 350]   0.9)  4( 16[ 974]   3.5)
  5( 12[ 350]9999.0)
 TTTTTTTTTTTTTTTTTTTTTTTTTTTTTT INT_CALC    TELAPSE      138.26 TCPU      137.19
 CYCLE   0   ALPHA   92.066003  EPSILON    2.544307  DELTA    9.2066E+01
 TTTTTTTTTTTTTTTTTTTTTTTTTTTTTT MOQGAD      TELAPSE      141.81 TCPU      140.73
 TTTTTTTTTTTTTTTTTTTTTTTTTTTTTT CP_MONMON   TELAPSE      144.33 TCPU      143.26
 CYCLE   1   ALPHA   84.442763  EPSILON    2.416435  DELTA   -7.6232E+00
 TTTTTTTTTTTTTTTTTTTTTTTTTTTTTT MOQGAD      TELAPSE      145.96 TCPU      144.88
 TTTTTTTTTTTTTTTTTTTTTTTTTTTTTT CP_MONMON   TELAPSE      148.48 TCPU      147.41
 CYCLE   2   ALPHA   86.129813  EPSILON    2.444733  DELTA    1.6871E+00
 TTTTTTTTTTTTTTTTTTTTTTTTTTTTTT MOQGAD      TELAPSE      150.11 TCPU      149.03
 TTTTTTTTTTTTTTTTTTTTTTTTTTTTTT CP_MONMON   TELAPSE      152.64 TCPU      151.56
 CYCLE   3   ALPHA   83.977687  EPSILON    2.408634  DELTA   -2.1521E+00
 TTTTTTTTTTTTTTTTTTTTTTTTTTTTTT MOQGAD      TELAPSE      154.26 TCPU      153.19
 TTTTTTTTTTTTTTTTTTTTTTTTTTTTTT CP_MONMON   TELAPSE      156.79 TCPU      155.71
 CYCLE   4   ALPHA   84.938237  EPSILON    2.424746  DELTA    9.6055E-01
 TTTTTTTTTTTTTTTTTTTTTTTTTTTTTT MOQGAD      TELAPSE      158.42 TCPU      157.34
 TTTTTTTTTTTTTTTTTTTTTTTTTTTTTT CP_MONMON   TELAPSE      160.94 TCPU      159.87
 CYCLE   5   ALPHA   84.171164  EPSILON    2.411879  DELTA   -7.6707E-01
 TTTTTTTTTTTTTTTTTTTTTTTTTTTTTT MOQGAD      TELAPSE      162.57 TCPU      161.49
 TTTTTTTTTTTTTTTTTTTTTTTTTTTTTT CP_MONMON   TELAPSE      165.10 TCPU      164.01
 CYCLE   6   ALPHA   84.596302  EPSILON    2.419010  DELTA    4.2514E-01
 TTTTTTTTTTTTTTTTTTTTTTTTTTTTTT MOQGAD      TELAPSE      166.72 TCPU      165.63
 TTTTTTTTTTTTTTTTTTTTTTTTTTTTTT CP_MONMON   TELAPSE      169.25 TCPU      168.16
 CYCLE   7   ALPHA   84.298892  EPSILON    2.414022  DELTA   -2.9741E-01
 TTTTTTTTTTTTTTTTTTTTTTTTTTTTTT MOQGAD      TELAPSE      170.88 TCPU      169.78
 TTTTTTTTTTTTTTTTTTTTTTTTTTTTTT CP_MONMON   TELAPSE      173.40 TCPU      172.31
 CYCLE   8   ALPHA   84.477905  EPSILON    2.417024  DELTA    1.7901E-01
 TTTTTTTTTTTTTTTTTTTTTTTTTTTTTT MOQGAD      TELAPSE      175.03 TCPU      173.93
 TTTTTTTTTTTTTTTTTTTTTTTTTTTTTT CP_MONMON   TELAPSE      177.55 TCPU      176.46
 CYCLE   9   ALPHA   84.358611  EPSILON    2.415023  DELTA   -1.1929E-01
 TTTTTTTTTTTTTTTTTTTTTTTTTTTTTT MOQGAD      TELAPSE      179.18 TCPU      178.09
 TTTTTTTTTTTTTTTTTTTTTTTTTTTTTT CP_MONMON   TELAPSE      181.71 TCPU      180.62
 CYCLE  10   ALPHA   84.433062  EPSILON    2.416272  DELTA    7.4451E-02
 TTTTTTTTTTTTTTTTTTTTTTTTTTTTTT MOQGAD      TELAPSE      183.33 TCPU      182.24
 TTTTTTTTTTTTTTTTTTTTTTTTTTTTTT CP_MONMON   TELAPSE      185.86 TCPU      184.76
 CYCLE  11   ALPHA   84.384409  EPSILON    2.415456  DELTA   -4.8652E-02
 TTTTTTTTTTTTTTTTTTTTTTTTTTTTTT MOQGAD      TELAPSE      187.49 TCPU      186.39
 TTTTTTTTTTTTTTTTTTTTTTTTTTTTTT CP_MONMON   TELAPSE      190.01 TCPU      188.92
 CYCLE  12   ALPHA   84.415303  EPSILON    2.415974  DELTA    3.0894E-02
 TTTTTTTTTTTTTTTTTTTTTTTTTTTTTT MOQGAD      TELAPSE      191.64 TCPU      190.54
 TTTTTTTTTTTTTTTTTTTTTTTTTTTTTT CP_MONMON   TELAPSE      194.16 TCPU      193.07
 CYCLE  13   ALPHA   84.395273  EPSILON    2.415638  DELTA   -2.0031E-02
 TTTTTTTTTTTTTTTTTTTTTTTTTTTTTT MOQGAD      TELAPSE      195.79 TCPU      194.70
 TTTTTTTTTTTTTTTTTTTTTTTTTTTTTT CP_MONMON   TELAPSE      198.31 TCPU      197.22
 CYCLE  14   ALPHA   84.408104  EPSILON    2.415854  DELTA    1.2831E-02
 TTTTTTTTTTTTTTTTTTTTTTTTTTTTTT MOQGAD      TELAPSE      199.94 TCPU      198.84
 TTTTTTTTTTTTTTTTTTTTTTTTTTTTTT CP_MONMON   TELAPSE      202.47 TCPU      201.37
 CYCLE  15   ALPHA   84.399808  EPSILON    2.415714  DELTA   -8.2964E-03
 TTTTTTTTTTTTTTTTTTTTTTTTTTTTTT MOQGAD      TELAPSE      204.09 TCPU      203.00
 TTTTTTTTTTTTTTTTTTTTTTTTTTTTTT CP_MONMON   TELAPSE      206.62 TCPU      205.52
 CYCLE  16   ALPHA   84.405147  EPSILON    2.415804  DELTA    5.3393E-03
 TTTTTTTTTTTTTTTTTTTTTTTTTTTTTT MOQGAD      TELAPSE      208.25 TCPU      207.15
 TTTTTTTTTTTTTTTTTTTTTTTTTTTTTT CP_MONMON   TELAPSE      210.77 TCPU      209.68
 CYCLE  17   ALPHA   84.401697  EPSILON    2.415746  DELTA   -3.4501E-03
 TTTTTTTTTTTTTTTTTTTTTTTTTTTTTT MOQGAD      TELAPSE      212.40 TCPU      211.30
 TTTTTTTTTTTTTTTTTTTTTTTTTTTTTT CP_MONMON   TELAPSE      214.93 TCPU      213.83
 CYCLE  18   ALPHA   84.403923  EPSILON    2.415784  DELTA    2.2261E-03
 TTTTTTTTTTTTTTTTTTTTTTTTTTTTTT MOQGAD      TELAPSE      216.55 TCPU      215.46
 TTTTTTTTTTTTTTTTTTTTTTTTTTTTTT CP_MONMON   TELAPSE      219.08 TCPU      217.98
 CYCLE  19   ALPHA   84.402484  EPSILON    2.415759  DELTA   -1.4388E-03
 TTTTTTTTTTTTTTTTTTTTTTTTTTTTTT MOQGAD      TELAPSE      220.70 TCPU      219.61
 TTTTTTTTTTTTTTTTTTTTTTTTTTTTTT CP_MONMON   TELAPSE      223.23 TCPU      222.13
 CYCLE  20   ALPHA   84.403414  EPSILON    2.415775  DELTA    9.2982E-04
 TTTTTTTTTTTTTTTTTTTTTTTTTTTTTT CP_SC       TELAPSE      223.56 TCPU      222.46

 *******************************************************************************

 ELECTRIC FIELD APPLIED ALONG CARTESIAN DIRECTION Z

 *******************************************************************************
 THE NUMBER OF SYMMETRY OPERATORS HAS BEEN REDUCED FROM  6 TO  1

 NEW GRID IN RECIPROCAL SPACE
 *******************************************************************************
 POINTS IN THE IBZ                  14 SHRINKING FACTORS               3  3  3
 *******************************************************************************
 *** K POINTS COORDINATES (OBLIQUE COORDINATES IN UNITS OF SHRINK FAC. )
   1-R(  0  0  0)   2-C(  1  0  0)   3-C(  2  1  0)   4-C(  0  2  0)
   5-C(  1  1  0)   6-C(  0  0  1)   7-C(  1  0  1)   8-C(  2  1  1)
   9-C(  0  2  1)  10-C(  2  0  1)  11-C(  1  2  1)  12-C(  0  1  1)
  13-C(  1  1  1)  14-C(  1  1  2)

 GCALCO - MAX INDICES DIRECT LATTICE VECTOR    16    16    12
 NO.OF VECTORS CREATED 6999 STARS  380 RMAX   107.55899 BOHR
 TTTTTTTTTTTTTTTTTTTTTTTTTTTTTT gordsh1     TELAPSE      225.47 TCPU      224.36

 MATRIX SIZE: P(G)   63492, F(G)   32043, P(G) IRR   32943, F(G) IRR   32943
 MAX G-VECTOR INDEX FOR 1- AND 2-ELECTRON INTEGRALS  71

 TTTTTTTTTTTTTTTTTTTTTTTTTTTTTT INPUT       TELAPSE      225.58 TCPU      224.48
 TTTTTTTTTTTTTTTTTTTTTTTTTTTTTT SYMM        TELAPSE      225.58 TCPU      224.48

 ***** NEW REFERENCE GEOMETRY *****
 TTTTTTTTTTTTTTTTTTTTTTTTTTTTTT INT_SCREEN  TELAPSE      225.59 TCPU      224.48
 INFORMATION **** EXCBUF **** EXCH. BIPO BUFFER: WORDS USED =           0

 DFT PARAMETERS

     ATOM       ELECTRONS   NET CHARGE   R(ANGSTROM)
   1  14  SI     14.0000      0.0000     1.17000000
   4   8  O       8.0000      0.0000     0.74000000

 SIZE OF GRID=     263886
 TTTTTTTTTTTTTTTTTTTTTTTTTTTTTT MAKE_GRID2  TELAPSE      227.19 TCPU      226.08
 BECKE WEIGHT FUNCTION
 RADSAFE =     2.00
 TOLERANCES - DENSITY:10**- 6; POTENTIAL:10**- 9; GRID WGT:10**-14

 RADIAL INTEGRATION  - INTERVALS (POINTS,UPPER LIMIT):            1( 75,  4.0*R)

 ANGULAR INTEGRATION - INTERVALS (ACCURACY LEVEL [N. POINTS] UPPER LIMIT):
  1(  4[  86]   0.2)  2(  8[ 194]   0.5)  3( 12[ 350]   0.9)  4( 16[ 974]   3.5)
  5( 12[ 350]9999.0)
 TTTTTTTTTTTTTTTTTTTTTTTTTTTTTT INT_CALC    TELAPSE      227.24 TCPU      226.13
 CYCLE   0   ALPHA   94.297697  EPSILON    2.581741  DELTA    9.4298E+01
 TTTTTTTTTTTTTTTTTTTTTTTTTTTTTT MOQGAD      TELAPSE      230.81 TCPU      229.70
 TTTTTTTTTTTTTTTTTTTTTTTTTTTTTT CP_MONMON   TELAPSE      233.33 TCPU      232.22
 CYCLE   1   ALPHA   88.375870  EPSILON    2.482409  DELTA   -5.9218E+00
 TTTTTTTTTTTTTTTTTTTTTTTTTTTTTT MOQGAD      TELAPSE      234.98 TCPU      233.87
 TTTTTTTTTTTTTTTTTTTTTTTTTTTTTT CP_MONMON   TELAPSE      237.51 TCPU      236.40
 CYCLE   2   ALPHA   89.270918  EPSILON    2.497422  DELTA    8.9505E-01
 TTTTTTTTTTTTTTTTTTTTTTTTTTTTTT MOQGAD      TELAPSE      239.14 TCPU      238.03
 TTTTTTTTTTTTTTTTTTTTTTTTTTTTTT CP_MONMON   TELAPSE      241.67 TCPU      240.56
 CYCLE   3   ALPHA   87.739772  EPSILON    2.471739  DELTA   -1.5311E+00
 TTTTTTTTTTTTTTTTTTTTTTTTTTTTTT MOQGAD      TELAPSE      243.29 TCPU      242.18
 TTTTTTTTTTTTTTTTTTTTTTTTTTTTTT CP_MONMON   TELAPSE      245.82 TCPU      244.71
 CYCLE   4   ALPHA   88.314346  EPSILON    2.481377  DELTA    5.7457E-01
 TTTTTTTTTTTTTTTTTTTTTTTTTTTTTT MOQGAD      TELAPSE      247.45 TCPU      246.34
 TTTTTTTTTTTTTTTTTTTTTTTTTTTTTT CP_MONMON   TELAPSE      249.98 TCPU      248.86
 CYCLE   5   ALPHA   87.814605  EPSILON    2.472994  DELTA   -4.9974E-01
 TTTTTTTTTTTTTTTTTTTTTTTTTTTTTT MOQGAD      TELAPSE      251.60 TCPU      250.49
 TTTTTTTTTTTTTTTTTTTTTTTTTTTTTT CP_MONMON   TELAPSE      254.13 TCPU      253.02
 CYCLE   6   ALPHA   88.062857  EPSILON    2.477158  DELTA    2.4825E-01
 TTTTTTTTTTTTTTTTTTTTTTTTTTTTTT MOQGAD      TELAPSE      255.76 TCPU      254.64
 TTTTTTTTTTTTTTTTTTTTTTTTTTTTTT CP_MONMON   TELAPSE      258.29 TCPU      257.18
 CYCLE   7   ALPHA   87.884804  EPSILON    2.474171  DELTA   -1.7805E-01
 TTTTTTTTTTTTTTTTTTTTTTTTTTTTTT MOQGAD      TELAPSE      259.91 TCPU      258.80
 TTTTTTTTTTTTTTTTTTTTTTTTTTTTTT CP_MONMON   TELAPSE      262.44 TCPU      261.33
 CYCLE   8   ALPHA   87.983799  EPSILON    2.475832  DELTA    9.8995E-02
 TTTTTTTTTTTTTTTTTTTTTTTTTTTTTT MOQGAD      TELAPSE      264.07 TCPU      262.96
 TTTTTTTTTTTTTTTTTTTTTTTTTTTTTT CP_MONMON   TELAPSE      266.60 TCPU      265.48
 CYCLE   9   ALPHA   87.918174  EPSILON    2.474731  DELTA   -6.5625E-02
 TTTTTTTTTTTTTTTTTTTTTTTTTTTTTT MOQGAD      TELAPSE      268.22 TCPU      267.10
 TTTTTTTTTTTTTTTTTTTTTTTTTTTTTT CP_MONMON   TELAPSE      270.75 TCPU      269.63
 CYCLE  10   ALPHA   87.956607  EPSILON    2.475376  DELTA    3.8432E-02
 TTTTTTTTTTTTTTTTTTTTTTTTTTTTTT MOQGAD      TELAPSE      272.37 TCPU      271.26
 TTTTTTTTTTTTTTTTTTTTTTTTTTTTTT CP_MONMON   TELAPSE      274.90 TCPU      273.79
 CYCLE  11   ALPHA   87.932056  EPSILON    2.474964  DELTA   -2.4551E-02
 TTTTTTTTTTTTTTTTTTTTTTTTTTTTTT MOQGAD      TELAPSE      276.53 TCPU      275.41
 TTTTTTTTTTTTTTTTTTTTTTTTTTTTTT CP_MONMON   TELAPSE      279.06 TCPU      277.94
 CYCLE  12   ALPHA   87.946808  EPSILON    2.475212  DELTA    1.4752E-02
 TTTTTTTTTTTTTTTTTTTTTTTTTTTTTT MOQGAD      TELAPSE      280.68 TCPU      279.57
 TTTTTTTTTTTTTTTTTTTTTTTTTTTTTT CP_MONMON   TELAPSE      283.21 TCPU      282.09
 CYCLE  13   ALPHA   87.937556  EPSILON    2.475056  DELTA   -9.2516E-03
 TTTTTTTTTTTTTTTTTTTTTTTTTTTTTT MOQGAD      TELAPSE      284.84 TCPU      283.72
 TTTTTTTTTTTTTTTTTTTTTTTTTTTTTT CP_MONMON   TELAPSE      287.36 TCPU      286.25
 CYCLE  14   ALPHA   87.943188  EPSILON    2.475151  DELTA    5.6318E-03
 TTTTTTTTTTTTTTTTTTTTTTTTTTTTTT MOQGAD      TELAPSE      288.99 TCPU      287.87
 TTTTTTTTTTTTTTTTTTTTTTTTTTTTTT CP_MONMON   TELAPSE      291.52 TCPU      290.40
 CYCLE  15   ALPHA   87.939689  EPSILON    2.475092  DELTA   -3.4993E-03
 TTTTTTTTTTTTTTTTTTTTTTTTTTTTTT MOQGAD      TELAPSE      293.14 TCPU      292.02
 TTTTTTTTTTTTTTTTTTTTTTTTTTTTTT CP_MONMON   TELAPSE      295.67 TCPU      294.55
 CYCLE  16   ALPHA   87.941833  EPSILON    2.475128  DELTA    2.1442E-03
 TTTTTTTTTTTTTTTTTTTTTTTTTTTTTT MOQGAD      TELAPSE      297.30 TCPU      296.18
 TTTTTTTTTTTTTTTTTTTTTTTTTTTTTT CP_MONMON   TELAPSE      299.83 TCPU      298.71
 CYCLE  17   ALPHA   87.940507  EPSILON    2.475106  DELTA   -1.3261E-03
 TTTTTTTTTTTTTTTTTTTTTTTTTTTTTT MOQGAD      TELAPSE      301.46 TCPU      300.34
 TTTTTTTTTTTTTTTTTTTTTTTTTTTTTT CP_MONMON   TELAPSE      303.99 TCPU      302.86
 CYCLE  18   ALPHA   87.941322  EPSILON    2.475120  DELTA    8.1520E-04
 TTTTTTTTTTTTTTTTTTTTTTTTTTTTTT CP_SC       TELAPSE      304.03 TCPU      302.91

 *******************************************************************************

 POLARIZABILITY (ALPHA), DIELECTRIC (EPSILON) AND FIRST-ORDER ELECTRIC
 SUSCEPTIBILITY (CHI(1)) TENSORS (INDEPENDENT COMPONENTS)

  COMPONENT    ALPHA(REAL, IMAGINARY)         EPSILON       CHI(1)
     XX       84.4034        0.0000        2.4158        1.4158
     XY        0.0000        0.0000        0.0000        0.0000
     XZ       -0.0000        0.0000       -0.0000       -0.0000
     YY       84.4034        0.0000        2.4158        1.4158
     YZ        0.0000        0.0000        0.0000        0.0000
     ZZ       87.9413        0.0000        2.4751        1.4751

 DIELECTRIC TENSOR

 TENSOR IN PRINCIPAL AXES SYSTEM
 AA  2.415776E+00 BB  2.415775E+00 CC  2.475120E+00

 REFRACTIVE INDICES 
 AA  1.554276E+00 BB  1.554277E+00 CC  1.573251E+00

 OPTICALLY ANISOTROPIC - UNIAXIAL CRYSTAL

 BIREFRINGENCE =  0.0190 (POSITIVE) - PROLATE OPTICAL ELLIPSOID

 EPSILON=N**2=1+CHI(1)=1+ALPHA*4*PI/V,   4*PI/V=   0.01677 BOHR**(-3)
 ALPHA IN BOHR**3; EPSILON AND CHI(1) ARE DIMENSIONLESS.
 *******************************************************************************


 SIZE OF GRID=     263886
 TTTTTTTTTTTTTTTTTTTTTTTTTTTTTT MAKE_GRID2  TELAPSE      307.74 TCPU      306.62
 BECKE WEIGHT FUNCTION
 RADSAFE =     2.00
 TOLERANCES - DENSITY:10**- 6; POTENTIAL:10**- 9; GRID WGT:10**-14

 RADIAL INTEGRATION  - INTERVALS (POINTS,UPPER LIMIT):            1( 75,  4.0*R)

 ANGULAR INTEGRATION - INTERVALS (ACCURACY LEVEL [N. POINTS] UPPER LIMIT):
  1(  4[  86]   0.2)  2(  8[ 194]   0.5)  3( 12[ 350]   0.9)  4( 16[ 974]   3.5)
  5( 12[ 350]9999.0)
 *******************************************************************************

 FIRST HYPERPOLARIZABILITY (BETA) AND SECOND ELECTRIC SUSCEPTIBILITY (CHI(2))
 TENSORS (INDEPENDENT COMPONENTS)

  COMPONENT      BETA                        CHI(2)       d(MKS)       d(cgs)
 *******************************************************************************

     XXX        0.0000  (     -0.0001)       0.0000       0.0000       0.0000
     XXY      -96.6402  (    -96.6402)      -0.8105      -0.7881      -0.0188
     XXZ       -0.0000  (     -0.0001)      -0.0000      -0.0000      -0.0000
     XYY        0.0000  (     -0.0000)       0.0000       0.0000       0.0000
     XYZ        0.0000  (      0.0001)       0.0000       0.0000       0.0000
     XZZ        0.0000  (      0.0000)       0.0000       0.0000       0.0000
     YYY       96.6402  (     96.6401)       0.8105       0.7881       0.0188
     YYZ       -0.0000  (      0.0001)      -0.0000      -0.0000      -0.0000
     YZZ       -0.0000  (      0.0000)      -0.0000      -0.0000      -0.0000
     ZZZ        0.0000  (      0.0000)       0.0000       0.0000       0.0000
 *******************************************************************************
 CHI(2) = BETA*2PI/V

 BETA AND CHI(2) IN A.U.:    [BETA] = M**(-1/2) L**(7/2) T
                             [CHI(2)] = 1/F
                             (L=LENGTH, M=MASS, T=TIME, F=FIELD INTENSITY)

 ELECTRIC SUSCEPTIBILITY IN THE SECOND HARMONIC GENERATION (SHG) CONVENTION IS:
                   d(A.U.)= 1/2 CHI(2)
                   d(MKS) = d(A.U.)/0.514220632 pm/V
                   d(CGS) = d(A.U.)/(4PI*1.7152535)  10**(-7) esu

 FIELD INTENSITY: 1 A.U. = 0.514220632*10**(11) V/m = 1.7152535*10**7 esu
 BEWARE:                CHI(2)=P/(E0*F**2)   (MKS)
                        CHI(2)=P/F**2        (CGS)
 WHERE P IS THE POLARIZATION VECTOR AND F IS THE APPLIED ELECTRIC FIELD.
 CONSISTENCY IS  PRESERVED BY MULTIPLYING THE CGS VALUE TIMES THE PERMITTIVITY
 OF THE VACUUM, E0 (CONVERSION FACTORS FROM www.physics.nist.gov/constants).
 IN PARENTHESIS: BETA BEFORE SYMMETRIZATION.

 *******************************************************************************

 INFORMATION **** CP2_DRIVER **** CONVERGENCE ON PSEUDO DE: 10**          -3
 INFORMATION **** CP2_DRIVER **** MAX NUMBER OF CPHF/CPKS CYCLES         200
 INFORMATION **** CP2_DRIVER **** CPHF/CPKS DAMPING PERCENTAGE:          50

 *******************************************************************************

 ELECTRIC FIELD APPLIED ALONG CARTESIAN DIRECTIONS XX

 *******************************************************************************
 NEW GRID IN RECIPROCAL SPACE
 *******************************************************************************
 POINTS IN THE IBZ                  14 SHRINKING FACTORS               3  3  3
 *******************************************************************************
 *** K POINTS COORDINATES (OBLIQUE COORDINATES IN UNITS OF SHRINK FAC. )
   1-R(  0  0  0)   2-C(  1  0  0)   3-C(  2  1  0)   4-C(  0  2  0)
   5-C(  1  1  0)   6-C(  0  0  1)   7-C(  1  0  1)   8-C(  2  1  1)
   9-C(  0  2  1)  10-C(  2  0  1)  11-C(  1  2  1)  12-C(  0  1  1)
  13-C(  1  1  1)  14-C(  1  1  2)
 TTTTTTTTTTTTTTTTTTTTTTTTTTTTTT gordsh1     TELAPSE      307.89 TCPU      306.77

 MATRIX SIZE: P(G)   63492, F(G)   32043, P(G) IRR   32943, F(G) IRR   32943
 MAX G-VECTOR INDEX FOR 1- AND 2-ELECTRON INTEGRALS  71

 TTTTTTTTTTTTTTTTTTTTTTTTTTTTTT INPUT       TELAPSE      307.89 TCPU      306.77
 TTTTTTTTTTTTTTTTTTTTTTTTTTTTTT SYMM        TELAPSE      307.89 TCPU      306.77

 ***** NEW REFERENCE GEOMETRY *****
 TTTTTTTTTTTTTTTTTTTTTTTTTTTTTT INT_SCREEN  TELAPSE      307.90 TCPU      306.78
 INFORMATION **** EXCBUF **** EXCH. BIPO BUFFER: WORDS USED =           0

 DFT PARAMETERS

     ATOM       ELECTRONS   NET CHARGE   R(ANGSTROM)
   1  14  SI     14.0000      0.0000     1.17000000
   4   8  O       8.0000      0.0000     0.74000000

 SIZE OF GRID=     263886
 TTTTTTTTTTTTTTTTTTTTTTTTTTTTTT MAKE_GRID2  TELAPSE      309.51 TCPU      308.38
 BECKE WEIGHT FUNCTION
 RADSAFE =     2.00
 TOLERANCES - DENSITY:10**- 6; POTENTIAL:10**- 9; GRID WGT:10**-14

 RADIAL INTEGRATION  - INTERVALS (POINTS,UPPER LIMIT):            1( 75,  4.0*R)

 ANGULAR INTEGRATION - INTERVALS (ACCURACY LEVEL [N. POINTS] UPPER LIMIT):
  1(  4[  86]   0.2)  2(  8[ 194]   0.5)  3( 12[ 350]   0.9)  4( 16[ 974]   3.5)
  5( 12[ 350]9999.0)
 TTTTTTTTTTTTTTTTTTTTTTTTTTTTTT INT_CALC    TELAPSE      309.56 TCPU      308.43
 TTTTTTTTTTTTTTTTTTTTTTTTTTTTTT MOQGAD      TELAPSE      313.11 TCPU      311.98
 NUMERICALLY INTEGRATED DENSITY     89.9999468337
 TTTTTTTTTTTTTTTTTTTTTTTTTTTTTT CP_MONMON   TELAPSE      315.88 TCPU      314.75
 CYCLE   0  PSEUDO-ENERGY DERIVATIVE       -2.793892E+02  DELTA   -2.7939E+02
 TTTTTTTTTTTTTTTTTTTTTTTTTTTTTT MOQGAD      TELAPSE      317.53 TCPU      316.40
 TTTTTTTTTTTTTTTTTTTTTTTTTTTTTT CP_MONMON   TELAPSE      320.29 TCPU      319.16
 CYCLE   1  PSEUDO-ENERGY DERIVATIVE        7.466219E+03  DELTA    7.7456E+03
 TTTTTTTTTTTTTTTTTTTTTTTTTTTTTT MOQGAD      TELAPSE      321.95 TCPU      320.81
 TTTTTTTTTTTTTTTTTTTTTTTTTTTTTT CP_MONMON   TELAPSE      324.71 TCPU      323.58
 CYCLE   2  PSEUDO-ENERGY DERIVATIVE        1.328495E+02  DELTA   -7.3334E+03
 TTTTTTTTTTTTTTTTTTTTTTTTTTTTTT MOQGAD      TELAPSE      326.36 TCPU      325.23
 TTTTTTTTTTTTTTTTTTTTTTTTTTTTTT CP_MONMON   TELAPSE      329.12 TCPU      327.99
 CYCLE   3  PSEUDO-ENERGY DERIVATIVE        1.272985E+03  DELTA    1.1401E+03
 TTTTTTTTTTTTTTTTTTTTTTTTTTTTTT MOQGAD      TELAPSE      330.77 TCPU      329.64
 TTTTTTTTTTTTTTTTTTTTTTTTTTTTTT CP_MONMON   TELAPSE      333.54 TCPU      332.40
 CYCLE   4  PSEUDO-ENERGY DERIVATIVE        5.894715E+02  DELTA   -6.8351E+02
 TTTTTTTTTTTTTTTTTTTTTTTTTTTTTT MOQGAD      TELAPSE      335.19 TCPU      334.05
 TTTTTTTTTTTTTTTTTTTTTTTTTTTTTT CP_MONMON   TELAPSE      337.95 TCPU      336.81
 CYCLE   5  PSEUDO-ENERGY DERIVATIVE        8.181075E+02  DELTA    2.2864E+02
 TTTTTTTTTTTTTTTTTTTTTTTTTTTTTT MOQGAD      TELAPSE      339.60 TCPU      338.47
 TTTTTTTTTTTTTTTTTTTTTTTTTTTTTT CP_MONMON   TELAPSE      342.36 TCPU      341.23
 CYCLE   6  PSEUDO-ENERGY DERIVATIVE        7.073897E+02  DELTA   -1.1072E+02
 TTTTTTTTTTTTTTTTTTTTTTTTTTTTTT MOQGAD      TELAPSE      344.02 TCPU      342.88
 TTTTTTTTTTTTTTTTTTTTTTTTTTTTTT CP_MONMON   TELAPSE      346.78 TCPU      345.64
 CYCLE   7  PSEUDO-ENERGY DERIVATIVE        7.544430E+02  DELTA    4.7053E+01
 TTTTTTTTTTTTTTTTTTTTTTTTTTTTTT MOQGAD      TELAPSE      348.43 TCPU      347.29
 TTTTTTTTTTTTTTTTTTTTTTTTTTTTTT CP_MONMON   TELAPSE      351.19 TCPU      350.05
 CYCLE   8  PSEUDO-ENERGY DERIVATIVE        7.302775E+02  DELTA   -2.4166E+01
 TTTTTTTTTTTTTTTTTTTTTTTTTTTTTT MOQGAD      TELAPSE      352.84 TCPU      351.69
 TTTTTTTTTTTTTTTTTTTTTTTTTTTTTT CP_MONMON   TELAPSE      355.60 TCPU      354.46
 CYCLE   9  PSEUDO-ENERGY DERIVATIVE        7.422186E+02  DELTA    1.1941E+01
 TTTTTTTTTTTTTTTTTTTTTTTTTTTTTT MOQGAD      TELAPSE      357.25 TCPU      356.11
 TTTTTTTTTTTTTTTTTTTTTTTTTTTTTT CP_MONMON   TELAPSE      360.02 TCPU      358.87
 CYCLE  10  PSEUDO-ENERGY DERIVATIVE        7.357182E+02  DELTA   -6.5004E+00
 TTTTTTTTTTTTTTTTTTTTTTTTTTTTTT MOQGAD      TELAPSE      361.66 TCPU      360.52
 TTTTTTTTTTTTTTTTTTTTTTTTTTTTTT CP_MONMON   TELAPSE      364.43 TCPU      363.28
 CYCLE  11  PSEUDO-ENERGY DERIVATIVE        7.392125E+02  DELTA    3.4943E+00
 TTTTTTTTTTTTTTTTTTTTTTTTTTTTTT MOQGAD      TELAPSE      366.08 TCPU      364.93
 TTTTTTTTTTTTTTTTTTTTTTTTTTTTTT CP_MONMON   TELAPSE      368.84 TCPU      367.69
 CYCLE  12  PSEUDO-ENERGY DERIVATIVE        7.372517E+02  DELTA   -1.9608E+00
 TTTTTTTTTTTTTTTTTTTTTTTTTTTTTT MOQGAD      TELAPSE      370.49 TCPU      369.34
 TTTTTTTTTTTTTTTTTTTTTTTTTTTTTT CP_MONMON   TELAPSE      373.25 TCPU      372.11
 CYCLE  13  PSEUDO-ENERGY DERIVATIVE        7.383466E+02  DELTA    1.0949E+00
 TTTTTTTTTTTTTTTTTTTTTTTTTTTTTT MOQGAD      TELAPSE      374.99 TCPU      373.84
 TTTTTTTTTTTTTTTTTTTTTTTTTTTTTT CP_MONMON   TELAPSE      377.75 TCPU      376.60
 CYCLE  14  PSEUDO-ENERGY DERIVATIVE        7.377243E+02  DELTA   -6.2229E-01
 TTTTTTTTTTTTTTTTTTTTTTTTTTTTTT MOQGAD      TELAPSE      379.40 TCPU      378.25
 TTTTTTTTTTTTTTTTTTTTTTTTTTTTTT CP_MONMON   TELAPSE      382.16 TCPU      381.01
 CYCLE  15  PSEUDO-ENERGY DERIVATIVE        7.380772E+02  DELTA    3.5296E-01
 TTTTTTTTTTTTTTTTTTTTTTTTTTTTTT MOQGAD      TELAPSE      383.81 TCPU      382.66
 TTTTTTTTTTTTTTTTTTTTTTTTTTTTTT CP_MONMON   TELAPSE      386.58 TCPU      385.42
 CYCLE  16  PSEUDO-ENERGY DERIVATIVE        7.378756E+02  DELTA   -2.0164E-01
 TTTTTTTTTTTTTTTTTTTTTTTTTTTTTT MOQGAD      TELAPSE      388.23 TCPU      387.07
 TTTTTTTTTTTTTTTTTTTTTTTTTTTTTT CP_MONMON   TELAPSE      390.99 TCPU      389.84
 CYCLE  17  PSEUDO-ENERGY DERIVATIVE        7.379907E+02  DELTA    1.1513E-01
 TTTTTTTTTTTTTTTTTTTTTTTTTTTTTT MOQGAD      TELAPSE      392.64 TCPU      391.48
 TTTTTTTTTTTTTTTTTTTTTTTTTTTTTT CP_MONMON   TELAPSE      395.40 TCPU      394.25
 CYCLE  18  PSEUDO-ENERGY DERIVATIVE        7.379248E+02  DELTA   -6.5932E-02
 TTTTTTTTTTTTTTTTTTTTTTTTTTTTTT MOQGAD      TELAPSE      397.05 TCPU      395.89
[...]
-rw------- 1 civalleri users   404080 Jan 16 10:54 fort.15.pe07
-rw------- 1 civalleri users        0 Jan 16 10:45 fort.17.pe01
-rw------- 1 civalleri users        0 Jan 16 10:45 fort.17.pe02
-rw------- 1 civalleri users        0 Jan 16 10:45 fort.17.pe03
-rw------- 1 civalleri users        0 Jan 16 10:45 fort.17.pe04
-rw------- 1 civalleri users        0 Jan 16 10:45 fort.17.pe05
-rw------- 1 civalleri users        0 Jan 16 10:45 fort.17.pe06
-rw------- 1 civalleri users        0 Jan 16 10:45 fort.17.pe07
-rw------- 1 civalleri users        0 Jan 16 10:45 fort.18.pe00
-rw------- 1 civalleri users        0 Jan 16 10:45 fort.18.pe01
-rw------- 1 civalleri users        0 Jan 16 10:45 fort.18.pe02
-rw------- 1 civalleri users        0 Jan 16 10:45 fort.18.pe03
-rw------- 1 civalleri users        0 Jan 16 10:45 fort.18.pe04
-rw------- 1 civalleri users        0 Jan 16 10:45 fort.18.pe05
-rw------- 1 civalleri users        0 Jan 16 10:45 fort.18.pe06
-rw------- 1 civalleri users        0 Jan 16 10:45 fort.18.pe07
-rw------- 1 civalleri users     2772 Jan 16 11:15 fort.19.pe00
-rw------- 1 civalleri users        0 Jan 16 10:45 fort.19.pe01
-rw------- 1 civalleri users        0 Jan 16 10:45 fort.19.pe02
-rw------- 1 civalleri users        0 Jan 16 10:45 fort.19.pe03
-rw------- 1 civalleri users        0 Jan 16 10:45 fort.19.pe04
-rw------- 1 civalleri users        0 Jan 16 10:45 fort.19.pe05
-rw------- 1 civalleri users        0 Jan 16 10:45 fort.19.pe06
-rw------- 1 civalleri users        0 Jan 16 10:45 fort.19.pe07
-rw------- 1 civalleri users   529736 Jan 16 11:01 fort.2.pe00
-rw------- 1 civalleri users   529224 Jan 16 11:01 fort.2.pe01
-rw------- 1 civalleri users   529000 Jan 16 11:01 fort.2.pe02
-rw------- 1 civalleri users   529440 Jan 16 11:01 fort.2.pe03
-rw------- 1 civalleri users   529312 Jan 16 11:01 fort.2.pe04
-rw------- 1 civalleri users   528432 Jan 16 11:01 fort.2.pe05
-rw------- 1 civalleri users   528304 Jan 16 11:01 fort.2.pe06
-rw------- 1 civalleri users   528032 Jan 16 11:01 fort.2.pe07
-rw------- 1 civalleri users   234932 Jan 16 11:10 fort.20
-rw------- 1 civalleri users        0 Jan 16 10:45 fort.22.pe00
-rw------- 1 civalleri users        0 Jan 16 10:45 fort.22.pe01
-rw------- 1 civalleri users   404080 Jan 16 10:57 fort.22.pe02
-rw------- 1 civalleri users   404080 Jan 16 10:57 fort.22.pe03
-rw------- 1 civalleri users   404080 Jan 16 10:57 fort.22.pe04
-rw------- 1 civalleri users   404080 Jan 16 10:57 fort.22.pe05
-rw------- 1 civalleri users   404080 Jan 16 10:57 fort.22.pe06
-rw------- 1 civalleri users   404080 Jan 16 10:57 fort.22.pe07
-rw------- 1 civalleri users  1281760 Jan 16 10:45 fort.26.pe00
-rw------- 1 civalleri users  1281760 Jan 16 10:45 fort.26.pe01
-rw------- 1 civalleri users   609424 Jan 16 10:48 fort.26.pe02
-rw------- 1 civalleri users   609424 Jan 16 10:48 fort.26.pe03
-rw------- 1 civalleri users   609424 Jan 16 10:48 fort.26.pe04
-rw------- 1 civalleri users   609424 Jan 16 10:48 fort.26.pe05
-rw------- 1 civalleri users   609424 Jan 16 10:48 fort.26.pe06
-rw------- 1 civalleri users   609424 Jan 16 10:48 fort.26.pe07
-rw------- 1 civalleri users        0 Jan 16 10:45 fort.27.pe00
-rw------- 1 civalleri users        0 Jan 16 10:45 fort.27.pe01
-rw------- 1 civalleri users    66968 Jan 16 10:47 fort.27.pe02
-rw------- 1 civalleri users    66968 Jan 16 10:47 fort.27.pe03
-rw------- 1 civalleri users    66968 Jan 16 10:47 fort.27.pe04
-rw------- 1 civalleri users    66968 Jan 16 10:47 fort.27.pe05
-rw------- 1 civalleri users    66968 Jan 16 10:47 fort.27.pe06
-rw------- 1 civalleri users    66968 Jan 16 10:47 fort.27.pe07
-rw------- 1 civalleri users        0 Jan 16 10:45 fort.28.pe00
-rw------- 1 civalleri users        0 Jan 16 10:45 fort.28.pe01
-rw------- 1 civalleri users    66968 Jan 16 10:48 fort.28.pe02
-rw------- 1 civalleri users    66968 Jan 16 10:48 fort.28.pe03
-rw------- 1 civalleri users    66968 Jan 16 10:48 fort.28.pe04
-rw------- 1 civalleri users    66968 Jan 16 10:48 fort.28.pe05
-rw------- 1 civalleri users    66968 Jan 16 10:48 fort.28.pe06
-rw------- 1 civalleri users    66968 Jan 16 10:48 fort.28.pe07
-rw------- 1 civalleri users        0 Jan 16 10:45 fort.29.pe00
-rw------- 1 civalleri users        0 Jan 16 10:45 fort.29.pe01
-rw------- 1 civalleri users    66968 Jan 16 10:50 fort.29.pe02
-rw------- 1 civalleri users    66968 Jan 16 10:50 fort.29.pe03
-rw------- 1 civalleri users    66968 Jan 16 10:50 fort.29.pe04
-rw------- 1 civalleri users    66968 Jan 16 10:50 fort.29.pe05
-rw------- 1 civalleri users    66968 Jan 16 10:50 fort.29.pe06
-rw------- 1 civalleri users    66968 Jan 16 10:50 fort.29.pe07
-rw------- 1 civalleri users        0 Jan 16 10:45 fort.3.pe00
-rw------- 1 civalleri users        0 Jan 16 10:45 fort.3.pe01
-rw------- 1 civalleri users   256352 Jan 16 11:14 fort.3.pe02
-rw------- 1 civalleri users   256352 Jan 16 11:14 fort.3.pe03
-rw------- 1 civalleri users   256352 Jan 16 11:14 fort.3.pe04
-rw------- 1 civalleri users   256352 Jan 16 11:14 fort.3.pe05
-rw------- 1 civalleri users   256352 Jan 16 11:14 fort.3.pe06
-rw------- 1 civalleri users   256352 Jan 16 11:14 fort.3.pe07
-rw------- 1 civalleri users  2372024 Jan 16 11:03 fort.31
-rw------- 1 civalleri users        0 Jan 16 10:45 fort.36.pe00
-rw------- 1 civalleri users        0 Jan 16 10:45 fort.36.pe01
-rw------- 1 civalleri users   404080 Jan 16 10:59 fort.36.pe02
-rw------- 1 civalleri users   404080 Jan 16 10:59 fort.36.pe03
-rw------- 1 civalleri users   404080 Jan 16 10:59 fort.36.pe04
-rw------- 1 civalleri users   404080 Jan 16 10:59 fort.36.pe05
-rw------- 1 civalleri users   404080 Jan 16 10:59 fort.36.pe06
-rw------- 1 civalleri users   404080 Jan 16 10:59 fort.36.pe07
-rw------- 1 civalleri users        0 Jan 16 10:45 fort.37.pe00
-rw------- 1 civalleri users        0 Jan 16 10:45 fort.37.pe01
-rw------- 1 civalleri users   404080 Jan 16 11:01 fort.37.pe02
-rw------- 1 civalleri users   404080 Jan 16 11:01 fort.37.pe03
-rw------- 1 civalleri users   404080 Jan 16 11:01 fort.37.pe04
-rw------- 1 civalleri users   404080 Jan 16 11:01 fort.37.pe05
-rw------- 1 civalleri users   404080 Jan 16 11:01 fort.37.pe06
-rw------- 1 civalleri users   404080 Jan 16 11:01 fort.37.pe07
-rw------- 1 civalleri users        0 Jan 16 10:45 fort.38.pe00
-rw------- 1 civalleri users        0 Jan 16 10:45 fort.38.pe01
-rw------- 1 civalleri users        0 Jan 16 10:45 fort.38.pe02
-rw------- 1 civalleri users        0 Jan 16 10:45 fort.38.pe03
-rw------- 1 civalleri users        0 Jan 16 10:45 fort.38.pe04
-rw------- 1 civalleri users        0 Jan 16 10:45 fort.38.pe05
-rw------- 1 civalleri users        0 Jan 16 10:45 fort.38.pe06
-rw------- 1 civalleri users        0 Jan 16 10:45 fort.38.pe07
-rw------- 1 civalleri users        0 Jan 16 10:45 fort.39.pe00
-rw------- 1 civalleri users        0 Jan 16 10:45 fort.39.pe01
-rw------- 1 civalleri users   404080 Jan 16 11:03 fort.39.pe02
-rw------- 1 civalleri users   404080 Jan 16 11:03 fort.39.pe03
-rw------- 1 civalleri users   404080 Jan 16 11:03 fort.39.pe04
-rw------- 1 civalleri users   404080 Jan 16 11:03 fort.39.pe05
-rw------- 1 civalleri users   404080 Jan 16 11:03 fort.39.pe06
-rw------- 1 civalleri users   404080 Jan 16 11:03 fort.39.pe07
-rw------- 1 civalleri users       36 Jan 16 10:45 fort.4.pe00
-rw------- 1 civalleri users       36 Jan 16 10:45 fort.4.pe01
-rw------- 1 civalleri users     3372 Jan 16 10:45 fort.4.pe02
-rw------- 1 civalleri users     3372 Jan 16 10:45 fort.4.pe03
-rw------- 1 civalleri users     3372 Jan 16 10:45 fort.4.pe04
-rw------- 1 civalleri users     3372 Jan 16 10:45 fort.4.pe05
-rw------- 1 civalleri users     3372 Jan 16 10:45 fort.4.pe06
-rw------- 1 civalleri users     3372 Jan 16 10:45 fort.4.pe07
-rw------- 1 civalleri users        0 Jan 16 10:45 fort.40.pe00
-rw------- 1 civalleri users        0 Jan 16 10:45 fort.40.pe01
-rw------- 1 civalleri users        0 Jan 16 10:45 fort.40.pe02
-rw------- 1 civalleri users        0 Jan 16 10:45 fort.40.pe03
-rw------- 1 civalleri users        0 Jan 16 10:45 fort.40.pe04
-rw------- 1 civalleri users        0 Jan 16 10:45 fort.40.pe05
-rw------- 1 civalleri users        0 Jan 16 10:45 fort.40.pe06
-rw------- 1 civalleri users        0 Jan 16 10:45 fort.40.pe07
-rw------- 1 civalleri users        0 Jan 16 10:45 fort.41.pe00
-rw------- 1 civalleri users        0 Jan 16 10:45 fort.41.pe01
-rw------- 1 civalleri users   304712 Jan 16 10:45 fort.41.pe02
-rw------- 1 civalleri users   304712 Jan 16 10:45 fort.41.pe03
-rw------- 1 civalleri users   304712 Jan 16 10:45 fort.41.pe04
-rw------- 1 civalleri users   304712 Jan 16 10:45 fort.41.pe05
-rw------- 1 civalleri users   304712 Jan 16 10:45 fort.41.pe06
-rw------- 1 civalleri users   304712 Jan 16 10:45 fort.41.pe07
-rw------- 1 civalleri users        0 Jan 16 10:45 fort.42.pe00
-rw------- 1 civalleri users        0 Jan 16 10:45 fort.42.pe01
-rw------- 1 civalleri users   304712 Jan 16 10:45 fort.42.pe02
-rw------- 1 civalleri users   304712 Jan 16 10:45 fort.42.pe03
-rw------- 1 civalleri users   304712 Jan 16 10:45 fort.42.pe04
-rw------- 1 civalleri users   304712 Jan 16 10:45 fort.42.pe05
-rw------- 1 civalleri users   304712 Jan 16 10:45 fort.42.pe06
-rw------- 1 civalleri users   304712 Jan 16 10:45 fort.42.pe07
-rw------- 1 civalleri users        0 Jan 16 10:45 fort.43.pe00
-rw------- 1 civalleri users        0 Jan 16 10:45 fort.43.pe01
-rw------- 1 civalleri users   304712 Jan 16 10:45 fort.43.pe02
-rw------- 1 civalleri users   304712 Jan 16 10:45 fort.43.pe03
-rw------- 1 civalleri users   304712 Jan 16 10:45 fort.43.pe04
-rw------- 1 civalleri users   304712 Jan 16 10:45 fort.43.pe05
-rw------- 1 civalleri users   304712 Jan 16 10:45 fort.43.pe06
-rw------- 1 civalleri users   304712 Jan 16 10:45 fort.43.pe07
-rw------- 1 civalleri users        0 Jan 16 10:45 fort.61.pe00
-rw------- 1 civalleri users        0 Jan 16 10:45 fort.61.pe01
-rw------- 1 civalleri users        0 Jan 16 10:45 fort.61.pe02
-rw------- 1 civalleri users        0 Jan 16 10:45 fort.61.pe03
-rw------- 1 civalleri users        0 Jan 16 10:45 fort.61.pe04
-rw------- 1 civalleri users        0 Jan 16 10:45 fort.61.pe05
-rw------- 1 civalleri users        0 Jan 16 10:45 fort.61.pe06
-rw------- 1 civalleri users        0 Jan 16 10:45 fort.61.pe07
-rw------- 1 civalleri users        0 Jan 16 10:45 fort.62.pe00
-rw------- 1 civalleri users     7124 Jan 16 11:15 fort.62.pe01
-rw------- 1 civalleri users     7444 Jan 16 11:15 fort.62.pe02
-rw------- 1 civalleri users     6292 Jan 16 11:15 fort.62.pe03
-rw------- 1 civalleri users        0 Jan 16 10:45 fort.62.pe04
-rw------- 1 civalleri users        0 Jan 16 10:45 fort.62.pe05
-rw------- 1 civalleri users     7124 Jan 16 11:15 fort.62.pe06
-rw------- 1 civalleri users     7444 Jan 16 11:15 fort.62.pe07
-rw------- 1 civalleri users        0 Jan 16 10:45 fort.67.pe00
-rw------- 1 civalleri users        0 Jan 16 10:45 fort.67.pe01
-rw------- 1 civalleri users   200904 Jan 16 10:47 fort.67.pe02
-rw------- 1 civalleri users   200904 Jan 16 10:47 fort.67.pe03
-rw------- 1 civalleri users   200904 Jan 16 10:47 fort.67.pe04
-rw------- 1 civalleri users   200904 Jan 16 10:47 fort.67.pe05
-rw------- 1 civalleri users   200904 Jan 16 10:47 fort.67.pe06
-rw------- 1 civalleri users   200904 Jan 16 10:47 fort.67.pe07
-rw------- 1 civalleri users        0 Jan 16 10:45 fort.69.pe00
-rw------- 1 civalleri users        0 Jan 16 10:45 fort.69.pe01
-rw------- 1 civalleri users   200904 Jan 16 10:48 fort.69.pe02
-rw------- 1 civalleri users   200904 Jan 16 10:48 fort.69.pe03
-rw------- 1 civalleri users   200904 Jan 16 10:48 fort.69.pe04
-rw------- 1 civalleri users   200904 Jan 16 10:48 fort.69.pe05
-rw------- 1 civalleri users   200904 Jan 16 10:48 fort.69.pe06
-rw------- 1 civalleri users   200904 Jan 16 10:48 fort.69.pe07
-rw------- 1 civalleri users        0 Jan 16 10:45 fort.70.pe00
-rw------- 1 civalleri users        0 Jan 16 10:45 fort.70.pe01
-rw------- 1 civalleri users   200904 Jan 16 10:50 fort.70.pe02
-rw------- 1 civalleri users   200904 Jan 16 10:50 fort.70.pe03
-rw------- 1 civalleri users   200904 Jan 16 10:50 fort.70.pe04
-rw------- 1 civalleri users   200904 Jan 16 10:50 fort.70.pe05
-rw------- 1 civalleri users   200904 Jan 16 10:50 fort.70.pe06
-rw------- 1 civalleri users   200904 Jan 16 10:50 fort.70.pe07
-rw------- 1 civalleri users        0 Jan 16 10:45 fort.73.pe00
-rw------- 1 civalleri users        0 Jan 16 10:45 fort.73.pe01
-rw------- 1 civalleri users   304712 Jan 16 10:45 fort.73.pe02
-rw------- 1 civalleri users   304712 Jan 16 10:45 fort.73.pe03
-rw------- 1 civalleri users   304712 Jan 16 10:45 fort.73.pe04
-rw------- 1 civalleri users   304712 Jan 16 10:45 fort.73.pe05
-rw------- 1 civalleri users   304712 Jan 16 10:45 fort.73.pe06
-rw------- 1 civalleri users   304712 Jan 16 10:45 fort.73.pe07
-rw------- 1 civalleri users        0 Jan 16 10:45 fort.74.pe00
-rw------- 1 civalleri users        0 Jan 16 10:45 fort.74.pe01
-rw------- 1 civalleri users   304712 Jan 16 10:45 fort.74.pe02
-rw------- 1 civalleri users   304712 Jan 16 10:45 fort.74.pe03
-rw------- 1 civalleri users   304712 Jan 16 10:45 fort.74.pe04
-rw------- 1 civalleri users   304712 Jan 16 10:45 fort.74.pe05
-rw------- 1 civalleri users   304712 Jan 16 10:45 fort.74.pe06
-rw------- 1 civalleri users   304712 Jan 16 10:45 fort.74.pe07
-rw------- 1 civalleri users        0 Jan 16 10:45 fort.75.pe00
-rw------- 1 civalleri users        0 Jan 16 10:45 fort.75.pe01
-rw------- 1 civalleri users   304712 Jan 16 10:45 fort.75.pe02
-rw------- 1 civalleri users   304712 Jan 16 10:45 fort.75.pe03
-rw------- 1 civalleri users   304712 Jan 16 10:45 fort.75.pe04
-rw------- 1 civalleri users   304712 Jan 16 10:45 fort.75.pe05
-rw------- 1 civalleri users   304712 Jan 16 10:45 fort.75.pe06
-rw------- 1 civalleri users   304712 Jan 16 10:45 fort.75.pe07
-rw------- 1 civalleri users     2064 Jan 16 10:45 fort.76.pe00
-rw------- 1 civalleri users     2064 Jan 16 10:45 fort.76.pe01
-rw------- 1 civalleri users     2064 Jan 16 10:45 fort.76.pe02
-rw------- 1 civalleri users     2064 Jan 16 10:45 fort.76.pe03
-rw------- 1 civalleri users     2064 Jan 16 10:45 fort.76.pe04
-rw------- 1 civalleri users     2064 Jan 16 10:45 fort.76.pe05
-rw------- 1 civalleri users     2064 Jan 16 10:45 fort.76.pe06
-rw------- 1 civalleri users     2064 Jan 16 10:45 fort.76.pe07
-rw------- 1 civalleri users        0 Jan 16 10:45 fort.77.pe00
-rw------- 1 civalleri users        0 Jan 16 10:45 fort.77.pe01
-rw------- 1 civalleri users   304712 Jan 16 10:47 fort.77.pe02
-rw------- 1 civalleri users   304712 Jan 16 10:47 fort.77.pe03
-rw------- 1 civalleri users   304712 Jan 16 10:47 fort.77.pe04
-rw------- 1 civalleri users   304712 Jan 16 10:47 fort.77.pe05
-rw------- 1 civalleri users   304712 Jan 16 10:47 fort.77.pe06
-rw------- 1 civalleri users   304712 Jan 16 10:47 fort.77.pe07
-rw------- 1 civalleri users        0 Jan 16 10:45 fort.78.pe00
-rw------- 1 civalleri users        0 Jan 16 10:45 fort.78.pe01
-rw------- 1 civalleri users   304712 Jan 16 10:48 fort.78.pe02
-rw------- 1 civalleri users   304712 Jan 16 10:48 fort.78.pe03
-rw------- 1 civalleri users   304712 Jan 16 10:48 fort.78.pe04
-rw------- 1 civalleri users   304712 Jan 16 10:48 fort.78.pe05
-rw------- 1 civalleri users   304712 Jan 16 10:48 fort.78.pe06
-rw------- 1 civalleri users   304712 Jan 16 10:48 fort.78.pe07
-rw------- 1 civalleri users     1000 Jan 16 11:15 fort.8.pe00
-rw------- 1 civalleri users    33864 Jan 16 11:10 fort.8.pe01
-rw------- 1 civalleri users   304712 Jan 16 11:15 fort.8.pe02
-rw------- 1 civalleri users   304712 Jan 16 11:15 fort.8.pe03
-rw------- 1 civalleri users   304712 Jan 16 11:15 fort.8.pe04
-rw------- 1 civalleri users   304712 Jan 16 11:15 fort.8.pe05
-rw------- 1 civalleri users   304712 Jan 16 11:15 fort.8.pe06
-rw------- 1 civalleri users   304712 Jan 16 11:15 fort.8.pe07
-rw------- 1 civalleri users  4229768 Jan 16 11:01 fort.80.pe00
-rw------- 1 civalleri users  4225672 Jan 16 11:01 fort.80.pe01
-rw------- 1 civalleri users  4223880 Jan 16 11:01 fort.80.pe02
-rw------- 1 civalleri users  4227232 Jan 16 11:01 fort.80.pe03
-rw------- 1 civalleri users  4226208 Jan 16 11:01 fort.80.pe04
-rw------- 1 civalleri users  4219056 Jan 16 11:01 fort.80.pe05
-rw------- 1 civalleri users  4218032 Jan 16 11:01 fort.80.pe06
-rw------- 1 civalleri users  4215744 Jan 16 11:01 fort.80.pe07
-rw------- 1 civalleri users  4758344 Jan 16 11:03 fort.81.pe00
-rw------- 1 civalleri users  4753736 Jan 16 11:03 fort.81.pe01
-rw------- 1 civalleri users  4751720 Jan 16 11:03 fort.81.pe02
-rw------- 1 civalleri users  4755488 Jan 16 11:03 fort.81.pe03
-rw------- 1 civalleri users  4754336 Jan 16 11:03 fort.81.pe04
-rw------- 1 civalleri users  4746288 Jan 16 11:03 fort.81.pe05
-rw------- 1 civalleri users  4745136 Jan 16 11:03 fort.81.pe06
-rw------- 1 civalleri users  4742560 Jan 16 11:03 fort.81.pe07
-rw------- 1 civalleri users        0 Jan 16 10:45 fort.82.pe00
-rw------- 1 civalleri users        0 Jan 16 10:45 fort.82.pe01
-rw------- 1 civalleri users   304712 Jan 16 10:47 fort.82.pe02
-rw------- 1 civalleri users   304712 Jan 16 10:47 fort.82.pe03
-rw------- 1 civalleri users   304712 Jan 16 10:47 fort.82.pe04
-rw------- 1 civalleri users   304712 Jan 16 10:47 fort.82.pe05
-rw------- 1 civalleri users   304712 Jan 16 10:47 fort.82.pe06
-rw------- 1 civalleri users   304712 Jan 16 10:47 fort.82.pe07
-rw------- 1 civalleri users        0 Jan 16 10:45 fort.83.pe00
-rw------- 1 civalleri users        0 Jan 16 10:45 fort.83.pe01
-rw------- 1 civalleri users   304712 Jan 16 10:48 fort.83.pe02
-rw------- 1 civalleri users   304712 Jan 16 10:48 fort.83.pe03
-rw------- 1 civalleri users   304712 Jan 16 10:48 fort.83.pe04
-rw------- 1 civalleri users   304712 Jan 16 10:48 fort.83.pe05
-rw------- 1 civalleri users   304712 Jan 16 10:48 fort.83.pe06
-rw------- 1 civalleri users   304712 Jan 16 10:48 fort.83.pe07
-rw------- 1 civalleri users        0 Jan 16 10:45 fort.84.pe00
-rw------- 1 civalleri users        0 Jan 16 10:45 fort.84.pe01
-rw------- 1 civalleri users   304712 Jan 16 10:50 fort.84.pe02
-rw------- 1 civalleri users   304712 Jan 16 10:50 fort.84.pe03
-rw------- 1 civalleri users   304712 Jan 16 10:50 fort.84.pe04
-rw------- 1 civalleri users   304712 Jan 16 10:50 fort.84.pe05
-rw------- 1 civalleri users   304712 Jan 16 10:50 fort.84.pe06
-rw------- 1 civalleri users   304712 Jan 16 10:50 fort.84.pe07
-rw------- 1 civalleri users   234932 Jan 16 11:10 fort.9
-rw------- 1 civalleri users        0 Jan 16 10:45 fort.92.pe00
-rw------- 1 civalleri users        0 Jan 16 10:45 fort.92.pe01
-rw------- 1 civalleri users   304712 Jan 16 10:50 fort.92.pe02
-rw------- 1 civalleri users   304712 Jan 16 10:50 fort.92.pe03
-rw------- 1 civalleri users   304712 Jan 16 10:50 fort.92.pe04
-rw------- 1 civalleri users   304712 Jan 16 10:50 fort.92.pe05
-rw------- 1 civalleri users   304712 Jan 16 10:50 fort.92.pe06
-rw------- 1 civalleri users   304712 Jan 16 10:50 fort.92.pe07
-rw------- 1 civalleri users   273168 Jan 16 11:15 fort.95.pe00
-rw------- 1 civalleri users   273168 Jan 16 11:15 fort.95.pe01
-rw------- 1 civalleri users   273168 Jan 16 11:15 fort.95.pe02
-rw------- 1 civalleri users   273168 Jan 16 11:15 fort.95.pe03
-rw------- 1 civalleri users   273168 Jan 16 11:15 fort.95.pe04
-rw------- 1 civalleri users   273168 Jan 16 11:15 fort.95.pe05
-rw------- 1 civalleri users   273168 Jan 16 11:15 fort.95.pe06
-rw------- 1 civalleri users   273168 Jan 16 11:15 fort.95.pe07
-rw------- 1 civalleri users   606035 Jan 16 10:45 fort.98
