/home/civalleri/bin/svn586_131211_pub1_0_1/bin/Linux-ifort_XE_openmpi_emt64/v1.0.1//Pcrystal
/data/civalleri/64567
script started on node4
QUARTZ BETA
CRYSTAL
0 0 0
180
5.10677925     5.58203831
2
14    -5.000000000000E-01 -5.000000000000E-01  3.333333333333E-01
 8     2.059599009278E-01 -2.059599009278E-01 -1.666666666667E-01
FREQCALC
INTENS
END
END
14 5
2 0 6 2.0 1.0
2 1 6 8.0 1.0
2 1 2 4.0 1.0
0 1 1 0.0 1.0
0.13 1.0 1.0
0 3 1 0.0 1.0
0.5 1.0
8 4
0 0 6 2.0 1.0
0.5484671660D+04 0.1831074430D-02
0.8252349460D+03 0.1395017220D-01
0.1880469580D+03 0.6844507810D-01
0.5296450000D+02 0.2327143360D+00
0.1689757040D+02 0.4701928980D+00
0.5799635340D+01 0.3585208530D+00
0 1 3 6.0 1.0
0.1553961625D+02 -0.1107775490D+00 0.7087426820D-01
0.3599933586D+01 -0.1480262620D+00 0.3397528390D+00
0.1013761750D+01 0.1130767010D+01 0.7271585770D+00
0 1 1 0.0 1.0
0.2742 0.100000D+01 0.100000D+01
0 3 1 0.0 1.0
0.6 1.0
99 0
END
DFT
EXCHANGE
PBESOL
CORRELAT
PBESOL
XLGRID
END
LEVSHIFT
6 0
SCFDIR
SHRINK
3 3
FMIXING
20
TOLDEE
10
END
Thu Jan 16 11:27:41 CET 2014
 PROCESS            0  OF           16  WORKING
 PROCESS            1  OF           16  WORKING
 PROCESS            2  OF           16  WORKING
 PROCESS            4  OF           16  WORKING
 PROCESS            5  OF           16  WORKING
 PROCESS            6  OF           16  WORKING
 PROCESS            7  OF           16  WORKING
 PROCESS            8  OF           16  WORKING
 PROCESS           11  OF           16  WORKING

         
 *******************************************************************************
 *                                                                             *
 *                               CRYSTAL09                                     *
 *                      public : 1.0.1 - Dec 11th, 2013                        *
 *                       HTTP://WWW.CRYSTAL.UNITO.IT                           *
 *                                                                             *
 *                              MAIN AUTHORS                                   *
 *                                                                             *
 *  R. DOVESI(1,11), V.R. SAUNDERS(2), C. ROETTI(1,11), R. ORLANDO(1,11),      *
 *  C.M. ZICOVICH-WILSON(1,3), F. PASCALE(4), B. CIVALLERI(1,11),              *
 *  K. DOLL(5), N.M. HARRISON(2,6), I. J. BUSH(7), Ph. D'ARCO(8),              *
 *  M. LLUNELL(9), M. CAUSA'(10), Y. NOEL(8)                                   *
 *                                                                             *
 *        CONTRIBUTIONS TO THE CURRENT RELEASE HAVE BEEN GIVEN BY              *
 *                                                                             *
 *  L. MASCHIO(1,11), S. CASASSA(1,11), A. ERBA(1,11), M. FERRABONE(1,11),     *
 *  M. DE LA PIERRE(1,11), M. FERRERO(1,11), V. LACIVITA(1,11),                *
 *  J. BAIMA(1,11), E. ALBANESE(1,11), M.F. PEINTINGER(12), R. BAST(13),       *
 *  M. RERAT(14), B. KIRTMAN(15), R. DEMICHELIS(1,16)                          *
 *                                                                             *
 * (1) THEORETICAL CHEMISTRY GROUP - UNIVERSITA' DI TORINO - TORINO (ITALY)    *
 *     http://www.crystal.unito.it                                             *
 PROCESS            9  OF           16  WORKING
 * (2) COMPUTATIONAL SCIENCE & ENGINEERING DEPARTMENT - STFC DARESBURY (UK)    *
 *     http://www.stfc.ac.uk/CSE/randd/cmg/CRYSTAL/25806.aspx                  *
 * (3) UNIVERSIDAD AUTONOMA DEL ESTADO DE MORELOS - CUERNAVACA (MEXICO)        *
 * (4) UNIVERSITE' DE LORRAINE - NANCY (FRANCE)                                *
 * (5) UNIVERSITAET ULM - ULM (GERMANY); (6) IMPERIAL COLLEGE - LONDON (UK)    *
 * (7) NAG - OXFORD (UK); (8) UPMC - SORBONNE UNIVERSITES - PARIS (FRANCE)     *
 * (9) UNIVERSIDAD DE BARCELONA - BARCELONA (SPAIN)                            *
 *(10) UNIVERSITA' DI NAPOLI "FEDERICO II" - NAPOLI (ITALY)                    *
 *(11) NIS - NANOSTRUCTURED INTERFACES AND SURFACES - TORINO (ITALY)           *
 *(12) MPI FUER CHEMISCHE ENERGIEKONVERSION - MUELHEIM AN DER RUHR (GERMANY)   *
 *(13) UNIVERSITY OF STOCKHOLM - STOCKHOLM (SWEDEN)                            *
 *(14) UNIVERSITE' DE PAU ET DES PAYS DE L'ADOUR - PAU (FRANCE)                *
 *(15) UNIVERSITY OF CALIFORNIA SANTA BARBARA - SANTA BARBARA (USA)            *
 *(16) CURTIN UNIVERSITY - PERTH (AUSTRALIA)                                   *
 *                                                                             *
 ********************************************************************************
 PROCESS           10  OF           16  WORKING
 EEEEEEEEEE STARTING  DATE 16 01 2014 TIME 11:27:43.0
 QUARTZ BETA                                                                     

 CRYSTAL CALCULATION
 (INPUT ACCORDING TO THE INTERNATIONAL TABLES FOR X-RAY CRYSTALLOGRAPHY)
 CRYSTAL FAMILY                       :  HEXAGONAL   
 CRYSTAL CLASS  (GROTH - 1921)        :  HEXAGONAL TRAPEZOHEDRAL              

 SPACE GROUP (NONCENTROSYMMETRIC)     :  P 62 2 2        

 LATTICE PARAMETERS  (ANGSTROMS AND DEGREES) - CONVENTIONAL CELL
        A           B           C        ALPHA        BETA       GAMMA
     5.10678     5.10678     5.58204    90.00000    90.00000   120.00000


 NUMBER OF IRREDUCIBLE ATOMS IN THE CONVENTIONAL CELL:    2

 INPUT COORDINATES

 ATOM AT. N.              COORDINATES
   1  14    -5.000000000000E-01 -5.000000000000E-01  3.333333333333E-01
   2   8     2.059599009278E-01 -2.059599009278E-01 -1.666666666667E-01
 PROCESS           12  OF           16  WORKING

 *******************************************************************************

 << INFORMATION >>: FROM NOW ON, ALL COORDINATES REFER TO THE PRIMITIVE CELL

 *******************************************************************************

 LATTICE PARAMETERS  (ANGSTROMS AND DEGREES) - PRIMITIVE CELL
       A          B          C         ALPHA     BETA     GAMMA        VOLUME
    5.10678    5.10678    5.58204    90.00000  90.00000 120.00000    126.071702
 PROCESS           13  OF           16  WORKING
 PROCESS           14  OF           16  WORKING
 PROCESS           15  OF           16  WORKING

 COORDINATES OF THE EQUIVALENT ATOMS (FRACTIONAL UNITS)

 N. ATOM EQUIV AT. N.          X                  Y                  Z

   1   1   1   14 SI    5.00000000000E-01  5.00000000000E-01  3.33333333333E-01
   2   1   2   14 SI   -5.00000000000E-01  0.00000000000E+00 -3.33066907388E-14
   3   1   3   14 SI    0.00000000000E+00 -5.00000000000E-01 -3.33333333333E-01

   4   2   1    8 O     2.05959900928E-01 -2.05959900928E-01 -1.66666666667E-01
   5   2   2    8 O    -2.05959900928E-01  2.05959900928E-01 -1.66666666667E-01
   6   2   3    8 O     2.05959900928E-01  4.11919801856E-01  5.00000000000E-01
   7   2   4    8 O    -4.11919801856E-01 -2.05959900928E-01  1.66666666667E-01
   8   2   5    8 O     4.11919801856E-01  2.05959900928E-01  1.66666666667E-01
   9   2   6    8 O    -2.05959900928E-01 -4.11919801856E-01  5.00000000000E-01

 NUMBER OF SYMMETRY OPERATORS         :   12
 *******************************************************************************
 * GEOMETRY EDITING - INPUT COORDINATES ARE GIVEN IN ANGSTROM         
 *******************************************************************************

 GEOMETRY NOW FULLY CONSISTENT WITH THE GROUP

 FRQFRQFRQFRQFRQFRQFRQFRQFRQFRQFRQFRQFRQFRQFRQFRQFRQFRQFRQFRQFRQFRQFRQFRQFRQFRQ

 PROCESS            3  OF           16  WORKING
                       FREQUENCY CALCULATION

 INFORMATION **** INPFREQ **** NEW DEFAULT - IMPOSING ECKART CONDITIONS TO THE HESSIAN

 GCALCO - MAX INDICES DIRECT LATTICE VECTOR    16    16    12
 NO.OF VECTORS CREATED 6999 STARS  380 RMAX   112.02510 BOHR

 GEOMETRY FOR WAVE FUNCTION - DIMENSIONALITY OF THE SYSTEM    3
 (NON PERIODIC DIRECTION: LATTICE PARAMETER FORMALLY SET TO 500)
 *******************************************************************************
 LATTICE PARAMETERS (ANGSTROMS AND DEGREES) - BOHR = 0.5291772083 ANGSTROM
 PRIMITIVE CELL - CENTRING CODE 1/0 VOLUME=   126.071702 - DENSITY  2.370 g/cm^3
         A              B              C           ALPHA      BETA       GAMMA 
     5.10677925     5.10677925     5.58203831    90.000000  90.000000 120.000000
 *******************************************************************************
 ATOMS IN THE ASYMMETRIC UNIT    2 - ATOMS IN THE UNIT CELL:    9
     ATOM              X/A                 Y/B                 Z/C    
 *******************************************************************************
   1 T  14 SI   -5.000000000000E-01 -5.000000000000E-01  3.333333333333E-01
   2 F  14 SI   -5.000000000000E-01 -5.551115123126E-17  0.000000000000E+00
   3 F  14 SI    0.000000000000E+00 -5.000000000000E-01 -3.333333333333E-01
   4 T   8 O     2.059599009278E-01 -2.059599009278E-01 -1.666666666667E-01
   5 F   8 O    -2.059599009278E-01  2.059599009278E-01 -1.666666666667E-01
   6 F   8 O     2.059599009278E-01  4.119198018556E-01 -5.000000000000E-01
   7 F   8 O    -4.119198018556E-01 -2.059599009278E-01  1.666666666667E-01
   8 F   8 O     4.119198018556E-01  2.059599009278E-01  1.666666666667E-01
   9 F   8 O    -2.059599009278E-01 -4.119198018556E-01 -5.000000000000E-01

 T = ATOM BELONGING TO THE ASYMMETRIC UNIT

 ****   12 SYMMOPS - TRANSLATORS IN FRACTIONAL UNITS
 **** MATRICES AND TRANSLATORS IN THE CRYSTALLOGRAPHIC REFERENCE FRAME
   V INV                    ROTATION MATRICES                   TRANSLATORS
   1   1  1.00  0.00  0.00  0.00  1.00  0.00  0.00  0.00  1.00  0.00  0.00  0.00
   2   2 -1.00  0.00  0.00  0.00 -1.00  0.00  0.00  0.00  1.00  0.00  0.00  0.00
   3   4  0.00 -1.00  0.00  1.00 -1.00  0.00  0.00  0.00  1.00  0.00  0.00  0.67
   4   3 -1.00  1.00  0.00 -1.00  0.00  0.00  0.00  0.00  1.00  0.00  0.00  0.33
   5   6  1.00 -1.00  0.00  1.00  0.00  0.00  0.00  0.00  1.00  0.00  0.00  0.33
   6   5  0.00  1.00  0.00 -1.00  1.00  0.00  0.00  0.00  1.00  0.00  0.00  0.67
   7   7  1.00 -1.00  0.00 -0.00 -1.00  0.00  0.00  0.00 -1.00  0.00  0.00  0.00
   8   8 -1.00  0.00  0.00 -1.00  1.00  0.00  0.00  0.00 -1.00  0.00  0.00  0.33
   9   9  0.00  1.00  0.00  1.00  0.00  0.00  0.00  0.00 -1.00  0.00  0.00  0.67
  10  10  0.00 -1.00  0.00 -1.00  0.00  0.00  0.00  0.00 -1.00  0.00  0.00  0.67
  11  11  1.00  0.00  0.00  1.00 -1.00  0.00  0.00  0.00 -1.00  0.00  0.00  0.33
  12  12 -1.00  1.00  0.00  0.00  1.00  0.00  0.00  0.00 -1.00  0.00  0.00  0.00

 DIRECT LATTICE VECTORS CARTESIAN COMPONENTS (ANGSTROM)
          X                    Y                    Z
   0.442260056202E+01  -0.255338962500E+01   0.000000000000E+00
   0.000000000000E+00   0.510677925000E+01   0.000000000000E+00
   0.000000000000E+00   0.000000000000E+00   0.558203831000E+01


 CARTESIAN COORDINATES - PRIMITIVE CELL
 *******************************************************************************
 *      ATOM          X(ANGSTROM)         Y(ANGSTROM)         Z(ANGSTROM)
 *******************************************************************************
    1    14 SI    2.211300281010E+00  1.276694812500E+00  1.860679436667E+00
    2    14 SI    2.211300281010E+00 -1.276694812500E+00  0.000000000000E+00
    3    14 SI    0.000000000000E+00  2.553389625000E+00 -1.860679436667E+00
    4     8 O     9.108783735967E-01 -1.577687622585E+00 -9.303397183333E-01
    5     8 O    -9.108783735967E-01  1.577687622585E+00 -9.303397183333E-01
    6     8 O     9.108783735967E-01  1.577687622585E+00  2.791019155000E+00
    7     8 O    -1.821756747193E+00 -1.175009441523E-16  9.303397183333E-01
    8     8 O     1.821756747193E+00  1.175009441523E-16  9.303397183333E-01
    9     8 O    -9.108783735967E-01 -1.577687622585E+00  2.791019155000E+00

 *******************************************************************************
 LOCAL ATOMIC FUNCTIONS BASIS SET
 *******************************************************************************
   ATOM   X(AU)   Y(AU)   Z(AU)  N. TYPE  EXPONENT  S COEF   P COEF   D/F/G COEF
 *******************************************************************************
   1 SI   4.179   2.413   3.516
                                  1 S  
                                         1.612E+04 1.959E-03 0.000E+00 0.000E+00
                                         2.426E+03 1.493E-02 0.000E+00 0.000E+00
                                         5.539E+02 7.285E-02 0.000E+00 0.000E+00
                                         1.563E+02 2.461E-01 0.000E+00 0.000E+00
                                         5.007E+01 4.859E-01 0.000E+00 0.000E+00
                                         1.702E+01 3.250E-01 0.000E+00 0.000E+00
                             2-   5 SP 
                                         2.927E+02-2.781E-03 4.438E-03 0.000E+00
                                         6.987E+01-3.571E-02 3.267E-02 0.000E+00
                                         2.234E+01-1.150E-01 1.347E-01 0.000E+00
                                         8.150E+00 9.356E-02 3.287E-01 0.000E+00
                                         3.135E+00 6.030E-01 4.496E-01 0.000E+00
                                         1.225E+00 4.190E-01 2.614E-01 0.000E+00
                             6-   9 SP 
                                         1.079E+00-3.761E-01 6.710E-02 0.000E+00
                                         3.024E-01 1.252E+00 9.569E-01 0.000E+00
                            10-  13 SP 
                                         1.300E-01 1.000E+00 1.000E+00 0.000E+00
                            14-  18 D  
                                         5.000E-01 0.000E+00 0.000E+00 1.000E+00
   2 SI   4.179  -2.413   0.000
   3 SI   0.000   4.825  -3.516
   4 O    1.721  -2.981  -1.758
                                 55 S  
                                         5.485E+03 1.831E-03 0.000E+00 0.000E+00
                                         8.252E+02 1.395E-02 0.000E+00 0.000E+00
                                         1.880E+02 6.845E-02 0.000E+00 0.000E+00
                                         5.296E+01 2.327E-01 0.000E+00 0.000E+00
                                         1.690E+01 4.702E-01 0.000E+00 0.000E+00
                                         5.800E+00 3.585E-01 0.000E+00 0.000E+00
                            56-  59 SP 
                                         1.554E+01-1.108E-01 7.087E-02 0.000E+00
                                         3.600E+00-1.480E-01 3.398E-01 0.000E+00
                                         1.014E+00 1.131E+00 7.272E-01 0.000E+00
                            60-  63 SP 
                                         2.742E-01 1.000E+00 1.000E+00 0.000E+00
                            64-  68 D  
                                         6.000E-01 0.000E+00 0.000E+00 1.000E+00
   5 O   -1.721   2.981  -1.758
   6 O    1.721   2.981   5.274
   7 O   -3.443  -0.000   1.758
   8 O    3.443   0.000   1.758
   9 O   -1.721  -2.981   5.274
 INFORMATION **** SET_MPP **** PCRYSTAL CALCULATION
 INFORMATION **** READM2 **** NEW DEFAULT: FOCK/KS MATRIX MIXING SET TO 30 %
 INFORMATION **** READM2 **** NEW DEFAULT: FULL DIRECT SCF MODE
 INFORMATION **** READM2 **** NEW DEFAULT: COULOMB BIPOLAR BUFFER SET TO 32 Mb
 INFORMATION **** READM2 **** NEW DEFAULT: EXCHANGE BIPOLAR BUFFER SET TO 32 Mb

 *******************************************************************************
 NEW DEFAULT: DFT INTEGRATION GRID INCREASED TO XLGRID
 NEW DEFAULT: LEVEL SHIFTER 6 0
 IF THE SYSTEM IS A METAL USE KEYWORD NOSHIFT
 *******************************************************************************

 INFORMATION **** LEVSHIFT **** LEVEL SHIFTER ACTIVE
 INFORMATION **** READM2 **** FULL DIRECT SCF (MONO AND BIEL INT) SELECTED
 INFORMATION **** TOLDEE **** SCF TOL ON TOTAL ENERGY SET TO          10
 *******************************************************************************
 N. OF ATOMS PER CELL         9  COULOMB OVERLAP TOL         (T1) 10**   -6
 NUMBER OF SHELLS            39  COULOMB PENETRATION TOL     (T2) 10**   -6
 NUMBER OF AO               138  EXCHANGE OVERLAP TOL        (T3) 10**   20
 N. OF ELECTRONS PER CELL    90  EXCHANGE PSEUDO OVP (F(G))  (T4) 10**   20
 CORE ELECTRONS PER CELL     42  EXCHANGE PSEUDO OVP (P(G))  (T5) 10**   20
 N. OF SYMMETRY OPERATORS    12  POLE ORDER IN MONO ZONE                  4
 *******************************************************************************
 TYPE OF CALCULATION :  RESTRICTED CLOSED SHELL
 KOHN-SHAM HAMILTONIAN

 (EXCHANGE)[CORRELATION] FUNCTIONAL:(PBEsol GGA)[PBEsol]

 EIGENVALUE LEVEL SHIFTING OF  0.600 HARTREE

 CAPPA:IS1  3;IS2  3;IS3  3; K PTS MONK NET   6; SYMMOPS:K SPACE  24;G SPACE  12

 *******************************************************************************
 MAX NUMBER OF SCF CYCLES      50  CONVERGENCE ON DELTAP        10**-20
 WEIGHT OF F(I) IN F(I+1)      20% CONVERGENCE ON ENERGY        10**-10
 EIGENVALUE LEVEL SHIFTING OF  0.600 HARTREE
 SHRINK. FACT.(MONKH.)    3  3  3  NUMBER OF K POINTS IN THE IBZ      6
 SHRINKING FACTOR(GILAT NET)    3  NUMBER OF K POINTS(GILAT NET)      6
 *******************************************************************************
 *** K POINTS COORDINATES (OBLIQUE COORDINATES IN UNITS OF IS =  3)
   1-R(  0  0  0)   2-C(  1  0  0)   3-C(  1  1  0)   4-C(  0  0  1)
   5-C(  1  0  1)   6-C(  1  1  1)

 DIRECT LATTICE VECTORS COMPON. (A.U.)     RECIP. LATTICE VECTORS COMPON. (A.U.) 
        X            Y            Z              X            Y            Z
    8.3575039   -4.8252071    0.0000000      0.7518017    0.0000000    0.0000000
    0.0000000    9.6504142    0.0000000      0.3759008    0.6510793    0.0000000
    0.0000000    0.0000000   10.5485237      0.0000000    0.0000000    0.5956459

 DISK SPACE FOR EIGENVECTORS (FTN 10)      209484 REALS

 SYMMETRY ADAPTION OF THE BLOCH FUNCTIONS ENABLED
 TTTTTTTTTTTTTTTTTTTTTTTTTTTTTT gordsh1     TELAPSE        1.04 TCPU        0.01

 MATRIX SIZE: P(G)   56124, F(G)   28323, P(G) IRR    3009, F(G) IRR    3009
 MAX G-VECTOR INDEX FOR 1- AND 2-ELECTRON INTEGRALS  59

 TTTTTTTTTTTTTTTTTTTTTTTTTTTTTT INPUT       TELAPSE        1.04 TCPU        0.02

 NEIGHBORS OF THE NON-EQUIVALENT ATOMS

 N = NUMBER OF NEIGHBORS AT DISTANCE R
    ATOM  N     R/ANG      R/AU   NEIGHBORS (ATOM LABELS AND CELL INDICES)
   1 SI   4     1.6270     3.0746    6 O    0 0 0    7 O    1 1 0    8 O    0 0 0
                                     9 O    1 1 0
   1 SI   4     3.1594     5.9704    2 SI   0 0 0    2 SI   0 1 0    3 SI   1 0 1
                                     3 SI   0 0 1
   1 SI   4     3.8150     7.2093    4 O    0 1 0    4 O    0 1 1    5 O    1 0 0
                                     5 O    1 0 1
   1 SI   4     3.9607     7.4846    6 O    1 0 0    7 O    1 0 0    8 O    0 1 0
                                     9 O    0 1 0
   1 SI   8     4.1986     7.9342    4 O    0 0 0    4 O    1 1 0    4 O    0 0 1
                                     4 O    1 1 1    5 O    1 1 0    5 O    0 0 0
                                     5 O    1 1 1    5 O    0 0 1
   1 SI   4     4.3314     8.1852    6 O    1 1 0    7 O    0 0 0    8 O    1 1 0
                                     9 O    0 0 0

   4 O    2     1.6270     3.0746    2 SI   0 0 0    3 SI   0-1 0
   4 O    2     2.6040     4.9209    8 O    0 0 0    9 O    0 0-1
   4 O    2     2.6696     5.0448    5 O    1 0 0    5 O    0-1 0
   4 O    2     2.6963     5.0953    6 O    0-1-1    7 O    1 0 0
   4 O    1     3.6435     6.8852    5 O    0 0 0
   4 O    2     3.6631     6.9223    6 O    0 0-1    7 O    0 0 0


 SYMMETRY ALLOWED INTERNAL DEGREE(S) OF FREEDOM:   1
 TTTTTTTTTTTTTTTTTTTTTTTTTTTTTT SYMM        TELAPSE        1.05 TCPU        0.02
 TTTTTTTTTTTTTTTTTTTTTTTTTTTTTT INT_SCREEN  TELAPSE        1.05 TCPU        0.03

 *******************************************************************************
 *                                                                             *
 *                                                                             *
 *         FFFFF  RRRR   EEEE   QQQ   U   U  EEEE  N   N   CCC  Y   Y          *
 *         F      R   R  E     Q   Q  U   U  E     NN  N  C      Y Y           *
 *         FFF    RRRR   EEEE  Q   Q  U   U  EEEE  N N N  C       Y            *
 *         F      R   R  E     Q  QQ  U   U  E     N  NN  C       Y            *
 *         F      R   R  EEEE   QQ Q   UUU   EEEE  N   N   CCC    Y            *
 *                                                                             *
 *                                                                             *
 * CALCULATION OF PHONON FREQUENCIES AT THE GAMMA POINT.                       *
 *                                                                             *
 * SYMMETRY IS EXPLOITED TO BUILD THE TOTAL HESSIAN MATRIX.                    *
 * (F. PASCALE PHD THESIS TURIN-PARIS 2002)                                    *
 *                                                                             *
 *******************************************************************************


 * INTENSITIES COMPUTED VIA THE BERRY PHASE APPROACH                           *
 *                                                                             *
 * REFERENCES TO BE QUOTED WHEN USING THIS MODULE:                             *
 *                                                                             *
 * F. Pascale, C.M. Zicovich-Wilson, F. Lopez, B. Civalleri                    *
 * R. Orlando, R. Dovesi                                                       *
 * The calculation of the vibration frequencies of crystalline                 *
 * compounds and its implementation in the CRYSTAL code                        *
 * J. Comput. Chem. 25 (2004) 888-897                                          *
 *                                                                             *
 * C.M. Zicovich-Wilson, F. Pascale, C. Roetti, V.R. Saunders,                 *
 * R. Orlando, R. Dovesi                                                       *
 * The calculation of the vibration frequencies of alpha-quartz:               *
 * the effect of hamiltonian and basis set                                     *
 * J. Comput. Chem. 25 (2004) 1873-1881                                        *
 *******************************************************************************



 ATOMS ISOTOPIC MASS (AMU) FOR FREQUENCY CALCULATION 

    1 SI     27.9769    2 SI     27.9769    3 SI     27.9769    4 O      15.9949
    5 O      15.9949    6 O      15.9949    7 O      15.9949    8 O      15.9949
    9 O      15.9949

 INFORMATION CONCERNING THE SCF+GRADIENT CALCULATIONS REQUIRED FOR
 GENERATING FREQUENCIES. IN PRINCIPLE 3N+1 SCF + GRADIENT
 CALCULATIONS  ARE REQUIRED;
 FOR EACH OF THEM THE REMAINING POINT SYMMETRY IS INDICATED.
 POINT SYMMETRY PERMITS TO GENERATE GRADIENTS FOR DISPLACEMENT B 
 STARTING FROM THE GRADIENT GENERATED BY DISPLACEMENT A.

   N   LABEL SYMBOL DISPLACEMENT     SYM. 

   1     EQUILIBRIUM GEOMETRY           12

   2      1   SI           DX           1
   3      1   SI           DY        GENERATED FROM LINE X WITH OP   9
   4      1   SI           DZ           2
   5      4   O            DX           1
   6      4   O            DY        GENERATED FROM LINE X WITH OP  10
   7      4   O            DZ           1
 USE OF RESIDUAL SYMMETRY AFTER DISPLACEMENT

 NUMERICAL GRADIENT COMPUTED WITH A SINGLE DISPLACEMENT (+DX) FOR EACH
 CARTESIAN COORDINATE WITH RESPECT TO THE EQUILIBRIUM CONFIGURATION
 DX=  0.003 ANGSTROM
 NUMBER OF IRREDUCIBLE ATOMS                     2
 NUMBER OF SCF+GRADIENT CALCULATIONS             5

  ATOM  SYMOP  ORDER
    1      4      2
    4      2      2

 ATOM  : IRREDUCIBLE ATOM
 SYMOP : NUMBER OF SYMMETRY OPERATORS THAT DOESN'T MOVE THE IRREDUCIBLE ATOM
 ORDER : MAXIMUM ORDER AMONG THE OPERATORS OF THE IRREDUCIBLE ATOM

 *******************************************************************************


 GCALCO - MAX INDICES DIRECT LATTICE VECTOR    16    16    12
 NO.OF VECTORS CREATED 6999 STARS  380 RMAX   112.02510 BOHR

 CAPPA:IS1  3;IS2  3;IS3  3; K PTS MONK NET   6; SYMMOPS:K SPACE  24;G SPACE  12

 TTTTTTTTTTTTTTTTTTTTTTTTTTTTTT gordsh1     TELAPSE        1.06 TCPU        0.04

 MATRIX SIZE: P(G)   56124, F(G)   28323, P(G) IRR    3009, F(G) IRR    3009
 MAX G-VECTOR INDEX FOR 1- AND 2-ELECTRON INTEGRALS  59

 TTTTTTTTTTTTTTTTTTTTTTTTTTTTTT INPUT       TELAPSE        1.07 TCPU        0.04

 SYMMETRY ALLOWED INTERNAL DEGREE(S) OF FREEDOM:   1
 TTTTTTTTTTTTTTTTTTTTTTTTTTTTTT SYMM        TELAPSE        1.07 TCPU        0.05
 TTTTTTTTTTTTTTTTTTTTTTTTTTTTTT INT_SCREEN  TELAPSE        1.08 TCPU        0.05
 INFORMATION **** EXCBUF **** EXCH. BIPO BUFFER: WORDS USED =           0

 DFT PARAMETERS

     ATOM       ELECTRONS   NET CHARGE   R(ANGSTROM)
   1  14  SI     14.0000      0.0000     1.17000000
   4   8  O       8.0000      0.0000     0.74000000

 SIZE OF GRID=      46344
 TTTTTTTTTTTTTTTTTTTTTTTTTTTTTT MAKE_GRID2  TELAPSE        2.37 TCPU        1.34
 BECKE WEIGHT FUNCTION
 RADSAFE =     2.00
 TOLERANCES - DENSITY:10**- 6; POTENTIAL:10**- 9; GRID WGT:10**-14

 RADIAL INTEGRATION  - INTERVALS (POINTS,UPPER LIMIT):            1( 75,  4.0*R)

 ANGULAR INTEGRATION - INTERVALS (ACCURACY LEVEL [N. POINTS] UPPER LIMIT):
  1(  4[  86]   0.2)  2(  8[ 194]   0.5)  3( 12[ 350]   0.9)  4( 16[ 974]   3.5)
  5( 12[ 350]9999.0)
 TTTTTTTTTTTTTTTTTTTTTTTTTTTTTT INT_CALC    TELAPSE        2.40 TCPU        1.38

 *******************************************************************************
 QUARTZ BETA                                                                     
 CRYSTAL - SCF - TYPE OF CALCULATION :  RESTRICTED CLOSED SHELL
 *******************************************************************************

 CAPPA:IS1  3;IS2  3;IS3  3; K PTS MONK NET   6; SYMMOPS:K SPACE  24;G SPACE  12

 TTTTTTTTTTTTTTTTTTTTTTTTTTTTTT SDIK        TELAPSE        2.41 TCPU        1.38

 AAAAAAAAAAAAAAAAAAAAAAAAAAAAAAAAAAAAAAAAAAAAAAAAAAAAAAAAAAAAAAAAAAAAAAAAAAAAAAA
         ATOMIC WAVEFUNCTION(S)


 NUCLEAR CHARGE 14.0  SYMMETRY SPECIES            S    P
 N. ELECTRONS   14.0  NUMBER OF PRIMITIVE GTOS   15    9
                      NUMBER OF CONTRACTED GTOS   4    3
                      NUMBER OF CLOSED SHELLS     3    1
                      OPEN SHELL OCCUPATION       0    2

  ZNUC SCFIT  TOTAL HF ENERGY   KINETIC ENERGY   VIRIAL THEOREM ACCURACY
  14.0  10   -2.888073230E+02  2.889016516E+02 -1.999673492E+00  1.9E-06

 NUCLEAR CHARGE  8.0  SYMMETRY SPECIES            S    P
 N. ELECTRONS    8.0  NUMBER OF PRIMITIVE GTOS   10    4
                      NUMBER OF CONTRACTED GTOS   3    2
                      NUMBER OF CLOSED SHELLS     2    0
                      OPEN SHELL OCCUPATION       0    4

  ZNUC SCFIT  TOTAL HF ENERGY   KINETIC ENERGY   VIRIAL THEOREM ACCURACY
   8.0  12   -7.477715677E+01  7.467571879E+01 -2.001358380E+00  3.0E-06

 AAAAAAAAAAAAAAAAAAAAAAAAAAAAAAAAAAAAAAAAAAAAAAAAAAAAAAAAAAAAAAAAAAAAAAAAAAAAAAA

 TTTTTTTTTTTTTTTTTTTTTTTTTTTTTT MOQGAD      TELAPSE        2.42 TCPU        1.39
 TTTTTTTTTTTTTTTTTTTTTTTTTTTTTT SHELLX2     TELAPSE        2.53 TCPU        1.50
 TTTTTTTTTTTTTTTTTTTTTTTTTTTTTT MONMO3      TELAPSE        2.56 TCPU        1.53
 NUMERICALLY INTEGRATED DENSITY     89.9999460614
 TTTTTTTTTTTTTTTTTTTTTTTTTTTTTT NUMDFT      TELAPSE        2.90 TCPU        1.86
 CYC   0 ETOT(AU) -1.318494098877E+03 DETOT -1.32E+03 tst  0.00E+00 PX  1.00E+00
 TTTTTTTTTTTTTTTTTTTTTTTTTTTTTT FDIK        TELAPSE        2.98 TCPU        1.95
 INSULATING STATE
 TOP OF VALENCE BANDS -    BAND     45; K    4; EIG -3.7115827E-01 AU
 TOP OF VALENCE BANDS -    BAND     45; K    1; EIG -3.7545167E-01 AU
 BOTTOM OF VIRTUAL BANDS - BAND     46; K    1; EIG -1.0192388E-01 AU
 TTTTTTTTTTTTTTTTTTTTTTTTTTTTTT PDIG        TELAPSE        3.00 TCPU        1.96
 TTTTTTTTTTTTTTTTTTTTTTTTTTTTTT MOQGAD      TELAPSE        3.00 TCPU        1.97
 TTTTTTTTTTTTTTTTTTTTTTTTTTTTTT SHELLX2     TELAPSE        3.13 TCPU        2.09
 TTTTTTTTTTTTTTTTTTTTTTTTTTTTTT MONMO3      TELAPSE        3.16 TCPU        2.13
 NUMERICALLY INTEGRATED DENSITY     89.9999683668
 TTTTTTTTTTTTTTTTTTTTTTTTTTTTTT NUMDFT      TELAPSE        3.93 TCPU        2.90
 CYC   1 ETOT(AU) -1.316138589536E+03 DETOT  2.36E+00 tst  0.00E+00 PX  1.00E+00
 TTTTTTTTTTTTTTTTTTTTTTTTTTTTTT FDIK        TELAPSE        3.98 TCPU        2.94
 INSULATING STATE
 TOP OF VALENCE BANDS -    BAND     45; K    4; EIG -1.3278780E-01 AU
 TOP OF VALENCE BANDS -    BAND     45; K    1; EIG -1.3996462E-01 AU
 BOTTOM OF VIRTUAL BANDS - BAND     46; K    1; EIG  1.3624912E-02 AU
 TTTTTTTTTTTTTTTTTTTTTTTTTTTTTT PDIG        TELAPSE        3.99 TCPU        2.96
 TTTTTTTTTTTTTTTTTTTTTTTTTTTTTT MOQGAD      TELAPSE        4.00 TCPU        2.96
 TTTTTTTTTTTTTTTTTTTTTTTTTTTTTT SHELLX2     TELAPSE        4.12 TCPU        3.09
 TTTTTTTTTTTTTTTTTTTTTTTTTTTTTT MONMO3      TELAPSE        4.15 TCPU        3.12
 NUMERICALLY INTEGRATED DENSITY     89.9999596908
 TTTTTTTTTTTTTTTTTTTTTTTTTTTTTT NUMDFT      TELAPSE        4.93 TCPU        3.89
 CYC   2 ETOT(AU) -1.316440473331E+03 DETOT -3.02E-01 tst  1.63E-02 PX  1.54E-01
 TTTTTTTTTTTTTTTTTTTTTTTTTTTTTT FDIK        TELAPSE        4.97 TCPU        3.94
 INSULATING STATE
 TOP OF VALENCE BANDS -    BAND     45; K    4; EIG -2.4353969E-01 AU
 TOP OF VALENCE BANDS -    BAND     45; K    1; EIG -2.4923623E-01 AU
 BOTTOM OF VIRTUAL BANDS - BAND     46; K    1; EIG -2.7427492E-02 AU
 TTTTTTTTTTTTTTTTTTTTTTTTTTTTTT PDIG        TELAPSE        4.98 TCPU        3.95
 TTTTTTTTTTTTTTTTTTTTTTTTTTTTTT MOQGAD      TELAPSE        4.99 TCPU        3.96
 TTTTTTTTTTTTTTTTTTTTTTTTTTTTTT SHELLX2     TELAPSE        5.11 TCPU        4.08
 TTTTTTTTTTTTTTTTTTTTTTTTTTTTTT MONMO3      TELAPSE        5.15 TCPU        4.12
 NUMERICALLY INTEGRATED DENSITY     89.9999603949
 TTTTTTTTTTTTTTTTTTTTTTTTTTTTTT NUMDFT      TELAPSE        5.92 TCPU        4.89
 CYC   3 ETOT(AU) -1.316473676044E+03 DETOT -3.32E-02 tst  6.17E-04 PX  4.44E-02
 TTTTTTTTTTTTTTTTTTTTTTTTTTTTTT FDIK        TELAPSE        5.96 TCPU        4.92
 INSULATING STATE
 TOP OF VALENCE BANDS -    BAND     45; K    4; EIG -2.3356721E-01 AU
 TOP OF VALENCE BANDS -    BAND     45; K    1; EIG -2.3933945E-01 AU
 BOTTOM OF VIRTUAL BANDS - BAND     46; K    1; EIG -2.3549763E-02 AU
 TTTTTTTTTTTTTTTTTTTTTTTTTTTTTT PDIG        TELAPSE        5.97 TCPU        4.94
 TTTTTTTTTTTTTTTTTTTTTTTTTTTTTT MOQGAD      TELAPSE        5.98 TCPU        4.94
 TTTTTTTTTTTTTTTTTTTTTTTTTTTTTT SHELLX2     TELAPSE        6.10 TCPU        5.07
 TTTTTTTTTTTTTTTTTTTTTTTTTTTTTT MONMO3      TELAPSE        6.14 TCPU        5.10
 NUMERICALLY INTEGRATED DENSITY     89.9999601722
 TTTTTTTTTTTTTTTTTTTTTTTTTTTTTT NUMDFT      TELAPSE        6.91 TCPU        5.88
 CYC   4 ETOT(AU) -1.316473910245E+03 DETOT -2.34E-04 tst  2.64E-05 PX  3.77E-03
 TTTTTTTTTTTTTTTTTTTTTTTTTTTTTT FDIK        TELAPSE        6.95 TCPU        5.92
 INSULATING STATE
 TOP OF VALENCE BANDS -    BAND     45; K    4; EIG -2.2967403E-01 AU
 TOP OF VALENCE BANDS -    BAND     45; K    1; EIG -2.3549763E-01 AU
 BOTTOM OF VIRTUAL BANDS - BAND     46; K    1; EIG -2.2289028E-02 AU
 TTTTTTTTTTTTTTTTTTTTTTTTTTTTTT PDIG        TELAPSE        6.96 TCPU        5.93
 TTTTTTTTTTTTTTTTTTTTTTTTTTTTTT MOQGAD      TELAPSE        6.97 TCPU        5.93
 TTTTTTTTTTTTTTTTTTTTTTTTTTTTTT SHELLX2     TELAPSE        7.09 TCPU        6.06
 TTTTTTTTTTTTTTTTTTTTTTTTTTTTTT MONMO3      TELAPSE        7.13 TCPU        6.09
 NUMERICALLY INTEGRATED DENSITY     89.9999598091
 TTTTTTTTTTTTTTTTTTTTTTTTTTTTTT NUMDFT      TELAPSE        7.90 TCPU        6.87
 CYC   5 ETOT(AU) -1.316474095362E+03 DETOT -1.85E-04 tst  2.61E-05 PX  4.13E-03
 TTTTTTTTTTTTTTTTTTTTTTTTTTTTTT FDIK        TELAPSE        7.94 TCPU        6.90
 INSULATING STATE
 TOP OF VALENCE BANDS -    BAND     45; K    4; EIG -2.3226725E-01 AU
 TOP OF VALENCE BANDS -    BAND     45; K    1; EIG -2.3805579E-01 AU
 BOTTOM OF VIRTUAL BANDS - BAND     46; K    1; EIG -2.3620205E-02 AU
 TTTTTTTTTTTTTTTTTTTTTTTTTTTTTT PDIG        TELAPSE        7.96 TCPU        6.92
 TTTTTTTTTTTTTTTTTTTTTTTTTTTTTT MOQGAD      TELAPSE        7.96 TCPU        6.92
 TTTTTTTTTTTTTTTTTTTTTTTTTTTTTT SHELLX2     TELAPSE        8.08 TCPU        7.05
 TTTTTTTTTTTTTTTTTTTTTTTTTTTTTT MONMO3      TELAPSE        8.12 TCPU        7.08
 NUMERICALLY INTEGRATED DENSITY     89.9999597127
 TTTTTTTTTTTTTTTTTTTTTTTTTTTTTT NUMDFT      TELAPSE        8.89 TCPU        7.86
 CYC   6 ETOT(AU) -1.316474130394E+03 DETOT -3.50E-05 tst  4.76E-06 PX  9.30E-04
 TTTTTTTTTTTTTTTTTTTTTTTTTTTTTT FDIK        TELAPSE        8.92 TCPU        7.89
 INSULATING STATE
 TOP OF VALENCE BANDS -    BAND     45; K    4; EIG -2.3250277E-01 AU
 TOP OF VALENCE BANDS -    BAND     45; K    1; EIG -2.3828912E-01 AU
 BOTTOM OF VIRTUAL BANDS - BAND     46; K    1; EIG -2.3872606E-02 AU
 TTTTTTTTTTTTTTTTTTTTTTTTTTTTTT PDIG        TELAPSE        8.94 TCPU        7.90
 TTTTTTTTTTTTTTTTTTTTTTTTTTTTTT MOQGAD      TELAPSE        8.94 TCPU        7.91
 TTTTTTTTTTTTTTTTTTTTTTTTTTTTTT SHELLX2     TELAPSE        9.07 TCPU        8.03
 TTTTTTTTTTTTTTTTTTTTTTTTTTTTTT MONMO3      TELAPSE        9.10 TCPU        8.07
 NUMERICALLY INTEGRATED DENSITY     89.9999596552
 TTTTTTTTTTTTTTTTTTTTTTTTTTTTTT NUMDFT      TELAPSE        9.88 TCPU        8.84
 CYC   7 ETOT(AU) -1.316474135835E+03 DETOT -5.44E-06 tst  2.06E-06 PX  5.55E-04
 TTTTTTTTTTTTTTTTTTTTTTTTTTTTTT FDIK        TELAPSE        9.91 TCPU        8.88
 INSULATING STATE
 TOP OF VALENCE BANDS -    BAND     45; K    4; EIG -2.3257377E-01 AU
 TOP OF VALENCE BANDS -    BAND     45; K    1; EIG -2.3835950E-01 AU
 BOTTOM OF VIRTUAL BANDS - BAND     46; K    1; EIG -2.3979899E-02 AU
 TTTTTTTTTTTTTTTTTTTTTTTTTTTTTT PDIG        TELAPSE        9.93 TCPU        8.89
 TTTTTTTTTTTTTTTTTTTTTTTTTTTTTT MOQGAD      TELAPSE        9.93 TCPU        8.90
 TTTTTTTTTTTTTTTTTTTTTTTTTTTTTT SHELLX2     TELAPSE       10.06 TCPU        9.02
 TTTTTTTTTTTTTTTTTTTTTTTTTTTTTT MONMO3      TELAPSE       10.09 TCPU        9.06
 NUMERICALLY INTEGRATED DENSITY     89.9999596187
 TTTTTTTTTTTTTTTTTTTTTTTTTTTTTT NUMDFT      TELAPSE       10.86 TCPU        9.83
 CYC   8 ETOT(AU) -1.316474136121E+03 DETOT -2.86E-07 tst  9.13E-07 PX  3.80E-04
 TTTTTTTTTTTTTTTTTTTTTTTTTTTTTT FDIK        TELAPSE       10.90 TCPU        9.86
 INSULATING STATE
 TOP OF VALENCE BANDS -    BAND     45; K    4; EIG -2.3270072E-01 AU
 TOP OF VALENCE BANDS -    BAND     45; K    1; EIG -2.3848472E-01 AU
 BOTTOM OF VIRTUAL BANDS - BAND     46; K    1; EIG -2.4073893E-02 AU
 TTTTTTTTTTTTTTTTTTTTTTTTTTTTTT PDIG        TELAPSE       10.91 TCPU        9.88
 TTTTTTTTTTTTTTTTTTTTTTTTTTTTTT MOQGAD      TELAPSE       10.92 TCPU        9.88
 TTTTTTTTTTTTTTTTTTTTTTTTTTTTTT SHELLX2     TELAPSE       11.04 TCPU       10.00
 TTTTTTTTTTTTTTTTTTTTTTTTTTTTTT MONMO3      TELAPSE       11.08 TCPU       10.04
 NUMERICALLY INTEGRATED DENSITY     89.9999596003
 TTTTTTTTTTTTTTTTTTTTTTTTTTTTTT NUMDFT      TELAPSE       11.85 TCPU       10.81
 CYC   9 ETOT(AU) -1.316474135955E+03 DETOT  1.66E-07 tst  3.71E-07 PX  1.75E-04
 TTTTTTTTTTTTTTTTTTTTTTTTTTTTTT FDIK        TELAPSE       11.88 TCPU       10.84
 INSULATING STATE
 TOP OF VALENCE BANDS -    BAND     45; K    4; EIG -2.3275169E-01 AU
 TOP OF VALENCE BANDS -    BAND     45; K    1; EIG -2.3853504E-01 AU
 BOTTOM OF VIRTUAL BANDS - BAND     46; K    1; EIG -2.4117924E-02 AU
 TTTTTTTTTTTTTTTTTTTTTTTTTTTTTT PDIG        TELAPSE       11.89 TCPU       10.86
 TTTTTTTTTTTTTTTTTTTTTTTTTTTTTT MOQGAD      TELAPSE       11.90 TCPU       10.86
 TTTTTTTTTTTTTTTTTTTTTTTTTTTTTT SHELLX2     TELAPSE       12.02 TCPU       10.99
 TTTTTTTTTTTTTTTTTTTTTTTTTTTTTT MONMO3      TELAPSE       12.06 TCPU       11.02
 NUMERICALLY INTEGRATED DENSITY     89.9999595901
 TTTTTTTTTTTTTTTTTTTTTTTTTTTTTT NUMDFT      TELAPSE       12.83 TCPU       11.80
 CYC  10 ETOT(AU) -1.316474135662E+03 DETOT  2.93E-07 tst  1.56E-07 PX  1.05E-04
 TTTTTTTTTTTTTTTTTTTTTTTTTTTTTT FDIK        TELAPSE       12.86 TCPU       11.83
 INSULATING STATE
 TOP OF VALENCE BANDS -    BAND     45; K    4; EIG -2.3277770E-01 AU
 TOP OF VALENCE BANDS -    BAND     45; K    1; EIG -2.3856071E-01 AU
 BOTTOM OF VIRTUAL BANDS - BAND     46; K    1; EIG -2.4141252E-02 AU
 TTTTTTTTTTTTTTTTTTTTTTTTTTTTTT PDIG        TELAPSE       12.88 TCPU       11.84
 TTTTTTTTTTTTTTTTTTTTTTTTTTTTTT MOQGAD      TELAPSE       12.88 TCPU       11.85
 TTTTTTTTTTTTTTTTTTTTTTTTTTTTTT SHELLX2     TELAPSE       13.01 TCPU       11.97
 TTTTTTTTTTTTTTTTTTTTTTTTTTTTTT MONMO3      TELAPSE       13.04 TCPU       12.01
 NUMERICALLY INTEGRATED DENSITY     89.9999595843
 TTTTTTTTTTTTTTTTTTTTTTTTTTTTTT NUMDFT      TELAPSE       13.82 TCPU       12.78
 CYC  11 ETOT(AU) -1.316474135443E+03 DETOT  2.19E-07 tst  6.59E-08 PX  6.15E-05
 TTTTTTTTTTTTTTTTTTTTTTTTTTTTTT FDIK        TELAPSE       13.85 TCPU       12.82
 INSULATING STATE
 TOP OF VALENCE BANDS -    BAND     45; K    4; EIG -2.3279384E-01 AU
 TOP OF VALENCE BANDS -    BAND     45; K    1; EIG -2.3857664E-01 AU
 BOTTOM OF VIRTUAL BANDS - BAND     46; K    1; EIG -2.4154913E-02 AU
 TTTTTTTTTTTTTTTTTTTTTTTTTTTTTT PDIG        TELAPSE       13.86 TCPU       12.83
 TTTTTTTTTTTTTTTTTTTTTTTTTTTTTT MOQGAD      TELAPSE       13.87 TCPU       12.84
 TTTTTTTTTTTTTTTTTTTTTTTTTTTTTT SHELLX2     TELAPSE       14.00 TCPU       12.96
 TTTTTTTTTTTTTTTTTTTTTTTTTTTTTT MONMO3      TELAPSE       14.03 TCPU       13.00
 NUMERICALLY INTEGRATED DENSITY     89.9999595810
 TTTTTTTTTTTTTTTTTTTTTTTTTTTTTT NUMDFT      TELAPSE       14.80 TCPU       13.76
 CYC  12 ETOT(AU) -1.316474135302E+03 DETOT  1.41E-07 tst  2.77E-08 PX  3.50E-05
 TTTTTTTTTTTTTTTTTTTTTTTTTTTTTT FDIK        TELAPSE       14.83 TCPU       13.80
 INSULATING STATE
 TOP OF VALENCE BANDS -    BAND     45; K    4; EIG -2.3280257E-01 AU
 TOP OF VALENCE BANDS -    BAND     45; K    1; EIG -2.3858525E-01 AU
 BOTTOM OF VIRTUAL BANDS - BAND     46; K    1; EIG -2.4162414E-02 AU
 TTTTTTTTTTTTTTTTTTTTTTTTTTTTTT PDIG        TELAPSE       14.85 TCPU       13.81
 TTTTTTTTTTTTTTTTTTTTTTTTTTTTTT MOQGAD      TELAPSE       14.85 TCPU       13.82
 TTTTTTTTTTTTTTTTTTTTTTTTTTTTTT SHELLX2     TELAPSE       14.98 TCPU       13.94
 TTTTTTTTTTTTTTTTTTTTTTTTTTTTTT MONMO3      TELAPSE       15.01 TCPU       13.98
 NUMERICALLY INTEGRATED DENSITY     89.9999595792
 TTTTTTTTTTTTTTTTTTTTTTTTTTTTTT NUMDFT      TELAPSE       15.79 TCPU       14.75
 CYC  13 ETOT(AU) -1.316474135223E+03 DETOT  7.85E-08 tst  1.17E-08 PX  1.92E-05
 TTTTTTTTTTTTTTTTTTTTTTTTTTTTTT FDIK        TELAPSE       15.82 TCPU       14.78
 INSULATING STATE
 TOP OF VALENCE BANDS -    BAND     45; K    4; EIG -2.3280738E-01 AU
 TOP OF VALENCE BANDS -    BAND     45; K    1; EIG -2.3859000E-01 AU
 BOTTOM OF VIRTUAL BANDS - BAND     46; K    1; EIG -2.4166631E-02 AU
 TTTTTTTTTTTTTTTTTTTTTTTTTTTTTT PDIG        TELAPSE       15.83 TCPU       14.80
 TTTTTTTTTTTTTTTTTTTTTTTTTTTTTT MOQGAD      TELAPSE       15.84 TCPU       14.80
 TTTTTTTTTTTTTTTTTTTTTTTTTTTTTT SHELLX2     TELAPSE       15.96 TCPU       14.92
 TTTTTTTTTTTTTTTTTTTTTTTTTTTTTT MONMO3      TELAPSE       16.00 TCPU       14.96
 NUMERICALLY INTEGRATED DENSITY     89.9999595781
 TTTTTTTTTTTTTTTTTTTTTTTTTTTTTT NUMDFT      TELAPSE       16.76 TCPU       15.73
 CYC  14 ETOT(AU) -1.316474135177E+03 DETOT  4.64E-08 tst  4.96E-09 PX  1.20E-05
 TTTTTTTTTTTTTTTTTTTTTTTTTTTTTT FDIK        TELAPSE       16.80 TCPU       15.76
 INSULATING STATE
 TOP OF VALENCE BANDS -    BAND     45; K    4; EIG -2.3281026E-01 AU
 TOP OF VALENCE BANDS -    BAND     45; K    1; EIG -2.3859284E-01 AU
 BOTTOM OF VIRTUAL BANDS - BAND     46; K    1; EIG -2.4169077E-02 AU
 TTTTTTTTTTTTTTTTTTTTTTTTTTTTTT PDIG        TELAPSE       16.81 TCPU       15.77
 TTTTTTTTTTTTTTTTTTTTTTTTTTTTTT MOQGAD      TELAPSE       16.82 TCPU       15.78
 TTTTTTTTTTTTTTTTTTTTTTTTTTTTTT SHELLX2     TELAPSE       16.94 TCPU       15.90
 TTTTTTTTTTTTTTTTTTTTTTTTTTTTTT MONMO3      TELAPSE       16.97 TCPU       15.94
 NUMERICALLY INTEGRATED DENSITY     89.9999595775
 TTTTTTTTTTTTTTTTTTTTTTTTTTTTTT NUMDFT      TELAPSE       17.75 TCPU       16.71
 CYC  15 ETOT(AU) -1.316474135151E+03 DETOT  2.55E-08 tst  2.10E-09 PX  6.35E-06
 TTTTTTTTTTTTTTTTTTTTTTTTTTTTTT FDIK        TELAPSE       17.78 TCPU       16.74
 INSULATING STATE
 TOP OF VALENCE BANDS -    BAND     45; K    4; EIG -2.3281182E-01 AU
 TOP OF VALENCE BANDS -    BAND     45; K    1; EIG -2.3859437E-01 AU
 BOTTOM OF VIRTUAL BANDS - BAND     46; K    1; EIG -2.4170447E-02 AU
 TTTTTTTTTTTTTTTTTTTTTTTTTTTTTT PDIG        TELAPSE       17.79 TCPU       16.76
 TTTTTTTTTTTTTTTTTTTTTTTTTTTTTT MOQGAD      TELAPSE       17.80 TCPU       16.76
 TTTTTTTTTTTTTTTTTTTTTTTTTTTTTT SHELLX2     TELAPSE       17.92 TCPU       16.89
 TTTTTTTTTTTTTTTTTTTTTTTTTTTTTT MONMO3      TELAPSE       17.96 TCPU       16.92
 NUMERICALLY INTEGRATED DENSITY     89.9999595772
 TTTTTTTTTTTTTTTTTTTTTTTTTTTTTT NUMDFT      TELAPSE       18.73 TCPU       17.70
 CYC  16 ETOT(AU) -1.316474135137E+03 DETOT  1.43E-08 tst  8.89E-10 PX  4.10E-06
 TTTTTTTTTTTTTTTTTTTTTTTTTTTTTT FDIK        TELAPSE       18.76 TCPU       17.73
 INSULATING STATE
 TOP OF VALENCE BANDS -    BAND     45; K    4; EIG -2.3281277E-01 AU
 TOP OF VALENCE BANDS -    BAND     45; K    1; EIG -2.3859531E-01 AU
 BOTTOM OF VIRTUAL BANDS - BAND     46; K    1; EIG -2.4171259E-02 AU
 TTTTTTTTTTTTTTTTTTTTTTTTTTTTTT PDIG        TELAPSE       18.78 TCPU       17.74
 TTTTTTTTTTTTTTTTTTTTTTTTTTTTTT MOQGAD      TELAPSE       18.78 TCPU       17.75
 TTTTTTTTTTTTTTTTTTTTTTTTTTTTTT SHELLX2     TELAPSE       18.90 TCPU       17.87
 TTTTTTTTTTTTTTTTTTTTTTTTTTTTTT MONMO3      TELAPSE       18.94 TCPU       17.91
 NUMERICALLY INTEGRATED DENSITY     89.9999595770
 TTTTTTTTTTTTTTTTTTTTTTTTTTTTTT NUMDFT      TELAPSE       19.71 TCPU       18.68
 CYC  17 ETOT(AU) -1.316474135130E+03 DETOT  7.42E-09 tst  3.77E-10 PX  2.28E-06
 TTTTTTTTTTTTTTTTTTTTTTTTTTTTTT FDIK        TELAPSE       19.74 TCPU       18.70
 INSULATING STATE
 TOP OF VALENCE BANDS -    BAND     45; K    4; EIG -2.3281331E-01 AU
 TOP OF VALENCE BANDS -    BAND     45; K    1; EIG -2.3859584E-01 AU
 BOTTOM OF VIRTUAL BANDS - BAND     46; K    1; EIG -2.4171722E-02 AU
 TTTTTTTTTTTTTTTTTTTTTTTTTTTTTT PDIG        TELAPSE       19.75 TCPU       18.72
 TTTTTTTTTTTTTTTTTTTTTTTTTTTTTT MOQGAD      TELAPSE       19.75 TCPU       18.72
 TTTTTTTTTTTTTTTTTTTTTTTTTTTTTT SHELLX2     TELAPSE       19.88 TCPU       18.85
 TTTTTTTTTTTTTTTTTTTTTTTTTTTTTT MONMO3      TELAPSE       19.92 TCPU       18.88
 NUMERICALLY INTEGRATED DENSITY     89.9999595768
 TTTTTTTTTTTTTTTTTTTTTTTTTTTTTT NUMDFT      TELAPSE       20.68 TCPU       19.65
 CYC  18 ETOT(AU) -1.316474135125E+03 DETOT  4.42E-09 tst  1.60E-10 PX  1.51E-06
 TTTTTTTTTTTTTTTTTTTTTTTTTTTTTT FDIK        TELAPSE       20.71 TCPU       19.68
 INSULATING STATE
 TOP OF VALENCE BANDS -    BAND     45; K    4; EIG -2.3281366E-01 AU
 TOP OF VALENCE BANDS -    BAND     45; K    1; EIG -2.3859618E-01 AU
 BOTTOM OF VIRTUAL BANDS - BAND     46; K    1; EIG -2.4171999E-02 AU
 TTTTTTTTTTTTTTTTTTTTTTTTTTTTTT PDIG        TELAPSE       20.72 TCPU       19.69
 TTTTTTTTTTTTTTTTTTTTTTTTTTTTTT MOQGAD      TELAPSE       20.73 TCPU       19.70
 TTTTTTTTTTTTTTTTTTTTTTTTTTTTTT SHELLX2     TELAPSE       20.85 TCPU       19.82
 TTTTTTTTTTTTTTTTTTTTTTTTTTTTTT MONMO3      TELAPSE       20.89 TCPU       19.85
 NUMERICALLY INTEGRATED DENSITY     89.9999595768
 TTTTTTTTTTTTTTTTTTTTTTTTTTTTTT NUMDFT      TELAPSE       21.66 TCPU       20.63
 CYC  19 ETOT(AU) -1.316474135123E+03 DETOT  1.83E-09 tst  6.76E-11 PX  8.40E-07
 TTTTTTTTTTTTTTTTTTTTTTTTTTTTTT FDIK        TELAPSE       21.69 TCPU       20.66
 INSULATING STATE
 TOP OF VALENCE BANDS -    BAND     45; K    4; EIG -2.3281380E-01 AU
 TOP OF VALENCE BANDS -    BAND     45; K    1; EIG -2.3859633E-01 AU
 BOTTOM OF VIRTUAL BANDS - BAND     46; K    1; EIG -2.4172141E-02 AU
 TTTTTTTTTTTTTTTTTTTTTTTTTTTTTT PDIG        TELAPSE       21.71 TCPU       20.67
 TTTTTTTTTTTTTTTTTTTTTTTTTTTTTT MOQGAD      TELAPSE       21.71 TCPU       20.68
 TTTTTTTTTTTTTTTTTTTTTTTTTTTTTT SHELLX2     TELAPSE       21.83 TCPU       20.80
 TTTTTTTTTTTTTTTTTTTTTTTTTTTTTT MONMO3      TELAPSE       21.87 TCPU       20.83
 NUMERICALLY INTEGRATED DENSITY     89.9999595767
 TTTTTTTTTTTTTTTTTTTTTTTTTTTTTT NUMDFT      TELAPSE       22.64 TCPU       21.61
 CYC  20 ETOT(AU) -1.316474135122E+03 DETOT  1.65E-09 tst  2.88E-11 PX  5.30E-07
 TTTTTTTTTTTTTTTTTTTTTTTTTTTTTT FDIK        TELAPSE       22.67 TCPU       21.63
 INSULATING STATE
 TOP OF VALENCE BANDS -    BAND     45; K    4; EIG -2.3281391E-01 AU
 TOP OF VALENCE BANDS -    BAND     45; K    1; EIG -2.3859643E-01 AU
 BOTTOM OF VIRTUAL BANDS - BAND     46; K    1; EIG -2.4172237E-02 AU
 TTTTTTTTTTTTTTTTTTTTTTTTTTTTTT PDIG        TELAPSE       22.68 TCPU       21.65
 TTTTTTTTTTTTTTTTTTTTTTTTTTTTTT MOQGAD      TELAPSE       22.69 TCPU       21.65
 TTTTTTTTTTTTTTTTTTTTTTTTTTTTTT SHELLX2     TELAPSE       22.81 TCPU       21.77
 TTTTTTTTTTTTTTTTTTTTTTTTTTTTTT MONMO3      TELAPSE       22.85 TCPU       21.81
 NUMERICALLY INTEGRATED DENSITY     89.9999595767
 TTTTTTTTTTTTTTTTTTTTTTTTTTTTTT NUMDFT      TELAPSE       23.62 TCPU       22.58
 CYC  21 ETOT(AU) -1.316474135121E+03 DETOT  7.72E-10 tst  1.23E-11 PX  3.27E-07
 TTTTTTTTTTTTTTTTTTTTTTTTTTTTTT FDIK        TELAPSE       23.64 TCPU       22.61
 INSULATING STATE
 TOP OF VALENCE BANDS -    BAND     45; K    4; EIG -2.3281400E-01 AU
 TOP OF VALENCE BANDS -    BAND     45; K    1; EIG -2.3859652E-01 AU
 BOTTOM OF VIRTUAL BANDS - BAND     46; K    1; EIG -2.4172304E-02 AU
 TTTTTTTTTTTTTTTTTTTTTTTTTTTTTT PDIG        TELAPSE       23.66 TCPU       22.62
 TTTTTTTTTTTTTTTTTTTTTTTTTTTTTT MOQGAD      TELAPSE       23.66 TCPU       22.63
 TTTTTTTTTTTTTTTTTTTTTTTTTTTTTT SHELLX2     TELAPSE       23.79 TCPU       22.75
 TTTTTTTTTTTTTTTTTTTTTTTTTTTTTT MONMO3      TELAPSE       23.82 TCPU       22.79
 NUMERICALLY INTEGRATED DENSITY     89.9999595767
 TTTTTTTTTTTTTTTTTTTTTTTTTTTTTT NUMDFT      TELAPSE       24.59 TCPU       23.56
 CYC  22 ETOT(AU) -1.316474135121E+03 DETOT  1.43E-10 tst  5.17E-12 PX  2.08E-07
 TTTTTTTTTTTTTTTTTTTTTTTTTTTTTT FDIK        TELAPSE       24.62 TCPU       23.58
 INSULATING STATE
 TOP OF VALENCE BANDS -    BAND     45; K    4; EIG -2.3281402E-01 AU
 TOP OF VALENCE BANDS -    BAND     45; K    1; EIG -2.3859655E-01 AU
 BOTTOM OF VIRTUAL BANDS - BAND     46; K    1; EIG -2.4172329E-02 AU
 TTTTTTTTTTTTTTTTTTTTTTTTTTTTTT PDIG        TELAPSE       24.63 TCPU       23.60
 TTTTTTTTTTTTTTTTTTTTTTTTTTTTTT MOQGAD      TELAPSE       24.64 TCPU       23.60
 TTTTTTTTTTTTTTTTTTTTTTTTTTTTTT SHELLX2     TELAPSE       24.76 TCPU       23.73
 TTTTTTTTTTTTTTTTTTTTTTTTTTTTTT MONMO3      TELAPSE       24.80 TCPU       23.76
 NUMERICALLY INTEGRATED DENSITY     89.9999595767
 TTTTTTTTTTTTTTTTTTTTTTTTTTTTTT NUMDFT      TELAPSE       25.57 TCPU       24.54
 CYC  23 ETOT(AU) -1.316474135120E+03 DETOT  4.69E-10 tst  2.21E-12 PX  1.29E-07
 TTTTTTTTTTTTTTTTTTTTTTTTTTTTTT FDIK        TELAPSE       25.59 TCPU       24.56
 INSULATING STATE
 TOP OF VALENCE BANDS -    BAND     45; K    4; EIG -2.3281405E-01 AU
 TOP OF VALENCE BANDS -    BAND     45; K    1; EIG -2.3859657E-01 AU
 BOTTOM OF VIRTUAL BANDS - BAND     46; K    1; EIG -2.4172351E-02 AU
 TTTTTTTTTTTTTTTTTTTTTTTTTTTTTT PDIG        TELAPSE       25.61 TCPU       24.57
 TTTTTTTTTTTTTTTTTTTTTTTTTTTTTT MOQGAD      TELAPSE       25.61 TCPU       24.58
 TTTTTTTTTTTTTTTTTTTTTTTTTTTTTT SHELLX2     TELAPSE       25.74 TCPU       24.70
 TTTTTTTTTTTTTTTTTTTTTTTTTTTTTT MONMO3      TELAPSE       25.77 TCPU       24.74
 NUMERICALLY INTEGRATED DENSITY     89.9999595767
 TTTTTTTTTTTTTTTTTTTTTTTTTTTTTT NUMDFT      TELAPSE       26.54 TCPU       25.51
 CYC  24 ETOT(AU) -1.316474135120E+03 DETOT  2.00E-10 tst  9.38E-13 PX  7.84E-08
 TTTTTTTTTTTTTTTTTTTTTTTTTTTTTT FDIK        TELAPSE       26.57 TCPU       25.53
 INSULATING STATE
 TOP OF VALENCE BANDS -    BAND     45; K    4; EIG -2.3281408E-01 AU
 TOP OF VALENCE BANDS -    BAND     45; K    1; EIG -2.3859660E-01 AU
 BOTTOM OF VIRTUAL BANDS - BAND     46; K    1; EIG -2.4172368E-02 AU
 TTTTTTTTTTTTTTTTTTTTTTTTTTTTTT PDIG        TELAPSE       26.58 TCPU       25.55
 TTTTTTTTTTTTTTTTTTTTTTTTTTTTTT MOQGAD      TELAPSE       26.59 TCPU       25.55
 TTTTTTTTTTTTTTTTTTTTTTTTTTTTTT SHELLX2     TELAPSE       26.71 TCPU       25.67
 TTTTTTTTTTTTTTTTTTTTTTTTTTTTTT MONMO3      TELAPSE       26.75 TCPU       25.71
 NUMERICALLY INTEGRATED DENSITY     89.9999595767
 TTTTTTTTTTTTTTTTTTTTTTTTTTTTTT NUMDFT      TELAPSE       27.51 TCPU       26.48
 CYC  25 ETOT(AU) -1.316474135120E+03 DETOT -6.03E-11 tst  3.94E-13 PX  4.89E-08
 TTTTTTTTTTTTTTTTTTTTTTTTTTTTTT FDIK        TELAPSE       27.54 TCPU       26.51
 INSULATING STATE
 TOP OF VALENCE BANDS -    BAND     45; K    4; EIG -2.3281408E-01 AU
 TOP OF VALENCE BANDS -    BAND     45; K    1; EIG -2.3859660E-01 AU
 BOTTOM OF VIRTUAL BANDS - BAND     46; K    1; EIG -2.4172372E-02 AU
 TTTTTTTTTTTTTTTTTTTTTTTTTTTTTT PDIG        TELAPSE       27.55 TCPU       26.52
 TTTTTTTTTTTTTTTTTTTTTTTTTTTTTT MOQGAD      TELAPSE       27.56 TCPU       26.52
 TTTTTTTTTTTTTTTTTTTTTTTTTTTTTT SHELLX2     TELAPSE       27.68 TCPU       26.65
 ::: PSEUDO TOTAL   ENERGY                        -1.2054580660964E+03
 ::: VIRIAL COEFFICIENT                            1.0428931900515E+00
 TTTTTTTTTTTTTTTTTTTTTTTTTTTTTT MONMO3      TELAPSE       27.72 TCPU       26.68
 NUMERICALLY INTEGRATED DENSITY     89.9999595767
 TTTTTTTTTTTTTTTTTTTTTTTTTTTTTT NUMDFT      TELAPSE       28.49 TCPU       27.46
 CYC  26 ETOT(AU) -1.316474135120E+03 DETOT  4.59E-11 tst  1.69E-13 PX  4.89E-08

 == SCF ENDED - CONVERGENCE ON ENERGY      E(AU) -1.3164741351203E+03 CYCLES  26


 ENERGY EXPRESSION=HARTREE+FOCK EXCH*0.00000+(PBESOL     EXCH)*1.00000+PBESOL     CORR


 TOTAL ENERGY(DFT)(AU)( 26) -1.3164741351203E+03 DE 4.6E-11 tester 1.7E-13
 TTTTTTTTTTTTTTTTTTTTTTTTTTTTTT EDFT        TELAPSE       28.49 TCPU       27.46

 *******************************************************************************
 *                             FORCE CALCULATION                               *
 *******************************************************************************

 TTTTTTTTTTTTTTTTTTTTTTTTTTTTTT NUMDFG      TELAPSE       31.30 TCPU       30.27
 INFORMATION **** EXCPOG **** EXCH. BIPO BUFFER LENGTH (WORDS) =           0
 INFORMATION **** GENPOG **** BIPO BUFFER LENGTH (WORDS) =      183300
 TTTTTTTTTTTTTTTTTTTTTTTTTTTTTT SHELXG      TELAPSE       31.80 TCPU       30.76

 CARTESIAN FORCES IN HARTREE/BOHR (ANALYTICAL)
   ATOM                     X                   Y                   Z
   1  14             0.000000000000E+00  5.329070518201E-15 -6.217248937901E-15
   2  14             3.469446951954E-15  2.053912595557E-15  1.986467371522E-15
   3  14            -1.480297366167E-15  1.776356839400E-15  1.509903313490E-14
   4   8             1.943033090024E-05 -3.365432032432E-05  3.108624468950E-15
   5   8            -1.943033090424E-05  3.365432032609E-05  6.661338147751E-15
   6   8             1.943033090646E-05  3.365432031988E-05 -3.555386612758E-15
   7   8            -3.886066180137E-05  2.664535259100E-15 -3.552713678801E-15
   8   8             3.886066180314E-05 -5.958196898822E-15 -8.881784197001E-15
   9   8            -1.943033090646E-05 -3.365432032698E-05 -4.440892098501E-15

 RESULTANT FORCE    -2.312975928408E-16  5.366055364810E-16  2.074375981644E-16

 SYMMETRY ALLOWED FORCES (ANALYTICAL) (DIRECTION, FORCE)

    1  9.5188792E-05
 TTTTTTTTTTTTTTTTTTTTTTTTTTTTTT TOTGRA      TELAPSE       31.85 TCPU       30.82

 HHHHHHHHHHHHHHHHHHHHHHHHHHHHHHHHHHHHHHHHHHHHHHHHHHHHHHHHHHHHHHHHHHHHHHHHHHHHHHH
                   FORCE CONSTANT MATRIX - NUMERICAL ESTIMATE
 HHHHHHHHHHHHHHHHHHHHHHHHHHHHHHHHHHHHHHHHHHHHHHHHHHHHHHHHHHHHHHHHHHHHHHHHHHHHHHH
 MAX ABS(DGRAD): MAXIMUM ABSOLUTE GRADIENT DIFFERENCE WITH RESPECT TO
                 THE CENTRAL POINT
 DE:             ENERGY DIFFERENCE WITH RESPECT TO THE CENTRAL POINT
                 (DE IS EXPECTED TO BE POSITIVE FOR ALL DISPLACEMENTS)

   ATOM      MAX ABS(DGRAD)       TOTAL ENERGY (AU)  N.CYC      DE       SYM
    CENTRAL POINT             -1.316474135120E+03    26     0.0000E+00    12
    1 SI DX   2.6764E-03      -1.316474127442E+03     9     7.6786E-06     1
    1 SI DY                   GENERATED FROM A PREVIOUS LINE
    1 SI DZ   2.8624E-03      -1.316474127017E+03     7     8.1035E-06     2
    4 O  DX   1.9237E-03      -1.316474129700E+03    13     5.4204E-06     1
    4 O  DY                   GENERATED FROM A PREVIOUS LINE
    4 O  DZ   1.4273E-03      -1.316474130976E+03     7     4.1444E-06     1

 GCALCO - MAX INDICES DIRECT LATTICE VECTOR    16    16    12
 NO.OF VECTORS CREATED 6999 STARS  380 RMAX   112.02510 BOHR

 CAPPA:IS1  3;IS2  3;IS3  3; K PTS MONK NET   6; SYMMOPS:K SPACE  24;G SPACE  12

 TTTTTTTTTTTTTTTTTTTTTTTTTTTTTT gordsh1     TELAPSE      204.34 TCPU      203.29

 MATRIX SIZE: P(G)   56124, F(G)   28323, P(G) IRR    3009, F(G) IRR    3009
 MAX G-VECTOR INDEX FOR 1- AND 2-ELECTRON INTEGRALS  59

 TTTTTTTTTTTTTTTTTTTTTTTTTTTTTT INPUT       TELAPSE      204.34 TCPU      203.29

 SYMMETRY ALLOWED INTERNAL DEGREE(S) OF FREEDOM:   1
 TTTTTTTTTTTTTTTTTTTTTTTTTTTTTT SYMM        TELAPSE      204.35 TCPU      203.30
 TTTTTTTTTTTTTTTTTTTTTTTTTTTTTT INT_SCREEN  TELAPSE      204.35 TCPU      203.30
 ERROR ON BORN TENSORS:  0.110395220886096     
 -5.236301135070764E-002 -2.220446049250313E-016  0.000000000000000E+000
  0.000000000000000E+000 -5.236301135070809E-002  0.000000000000000E+000
  0.000000000000000E+000  0.000000000000000E+000 -8.187389620056651E-002
 WARNING **** HRED **** SUM RULE OF THE BORN CHARGE TENSOR NOT FULFILLED

 NORM OF THE RESULTING NON-NULL MATRIX      0.110E+00
 TO BETTER OBEY THE SUM RULE, INCREASE THE SHRINKING FACTOR OR IMPROVE
 THE DIPOLE MOMENT CALCULATION WITH THE CORRESPONDING KEYWORDS (SEE THE MANUAL)

 ATOMIC BORN CHARGE TENSOR (UNITS OF e, ELECTRON CHARGE).
 DYNAMIC CHARGE = 1/3 * TRACE .

 ATOM   1 SI DYNAMIC CHARGE     3.488867

              1           2           3
   1     3.2807E+00 -3.1385E-01  0.0000E+00
   2    -3.1385E-01  3.6431E+00  0.0000E+00
   3     0.0000E+00  0.0000E+00  3.5427E+00

 ATOM   2 SI DYNAMIC CHARGE     3.488867

              1           2           3
   1     3.2807E+00  3.1385E-01  0.0000E+00
   2     3.1385E-01  3.6431E+00  0.0000E+00
   3     0.0000E+00  0.0000E+00  3.5427E+00

 ATOM   3 SI DYNAMIC CHARGE     3.488867

              1           2           3
   1     3.8243E+00  0.0000E+00  0.0000E+00
   2     0.0000E+00  3.0995E+00  0.0000E+00
   3    -4.3368E-19  0.0000E+00  3.5427E+00

 ATOM   4 O  DYNAMIC CHARGE    -1.754800

              1           2           3
   1    -2.0711E+00 -5.7406E-01 -7.8573E-01
   2    -5.7406E-01 -1.4083E+00 -4.5364E-01
   3    -8.0149E-01 -4.6274E-01 -1.7850E+00

 ATOM   5 O  DYNAMIC CHARGE    -1.754800

              1           2           3
   1    -2.0711E+00 -5.7406E-01  7.8573E-01
   2    -5.7406E-01 -1.4083E+00  4.5364E-01
   3     8.0149E-01  4.6274E-01 -1.7850E+00

 ATOM   6 O  DYNAMIC CHARGE    -1.754800

              1           2           3
   1    -2.0711E+00  5.7406E-01  7.8573E-01
   2     5.7406E-01 -1.4083E+00 -4.5364E-01
   3     8.0149E-01 -4.6274E-01 -1.7850E+00

 ATOM   7 O  DYNAMIC CHARGE    -1.754800

              1           2           3
   1    -1.0768E+00  0.0000E+00  0.0000E+00
   2     0.0000E+00 -2.4026E+00  9.0728E-01
   3     0.0000E+00  9.2548E-01 -1.7850E+00

 ATOM   8 O  DYNAMIC CHARGE    -1.754800

              1           2           3
   1    -1.0768E+00  0.0000E+00  0.0000E+00
   2     0.0000E+00 -2.4026E+00 -9.0728E-01
   3     0.0000E+00 -9.2548E-01 -1.7850E+00

 ATOM   9 O  DYNAMIC CHARGE    -1.754800

              1           2           3
   1    -2.0711E+00  5.7406E-01 -7.8573E-01
   2     5.7406E-01 -1.4083E+00  4.5364E-01
   3    -8.0149E-01  4.6274E-01 -1.7850E+00

 +++ SYMMETRY ADAPTION OF VIBRATIONAL MODES +++

 SYMMETRY INFORMATION:
 K-LITTLE GROUP: CLASS TABLE, CHARACTER TABLE.
 IRREP-(DIMENSION, NO. IRREDUCIBLE SETS)
 [WARNINGS: (1) ONLY ACTIVE IRREPS ARE GENERATED AND LISTED.
            (2) ONLY RELEVANT CLASSES ARE CONSIDERED IN THE CHARACTER TABLE
            (3) SYMBOLS MAY NOT FULLY COINCIDE WITH THOSE FROM TEXT BOOKS.]

 (P, D, RP, RD, STAND FOR PAIRING, DOUBLING, REAL PAIRING AND REAL DOUBLING 
 OF THE IRREPS (SEE MANUAL))

 CLASS  | GROUP OPERATORS (SEE SYMMOPS KEYWORD)
 --------------------------------------------------------------------
 C2     |   2;
 C3     |   3;   4;
 C6     |   5;   6;
 C2'    |   7;   8;   9;
 C2''   |  10;  12;  11;

 IRREP/CLA      E     C2     C3     C6    C2'   C2''
 ---------------------------------------------------
  MULTIP |      1      1      2      2      3      3
 ---------------------------------------------------
    A1   |   1.00   1.00   1.00   1.00   1.00   1.00
    A2   |   1.00   1.00   1.00   1.00  -1.00  -1.00
    B1   |   1.00  -1.00   1.00  -1.00   1.00  -1.00
    B2   |   1.00  -1.00   1.00  -1.00  -1.00   1.00
    E1   |   2.00  -2.00  -1.00   1.00   0.00  -0.00
    E2   |   2.00   2.00  -1.00  -1.00   0.00   0.00
 
 A1 -(1,   1); A2 -(1,   3); B1 -(1,   3); B2 -(1,   2); E1 -(2,   5);
 E2 -(2,   4);


 BORN CHARGE VECTOR IN THE BASIS OF NORMAL MODES (UNITS OF e*M_E**(-1/2) ).
 e AND M_E ARE UNITS OF ELECTRON CHARGE AND MASS, RESPECTIVELY.

 MODE         X              Y              Z
   1    0.81001E-15   -0.19636E-14   -0.32504E-18
   2    0.00000E+00    0.00000E+00   -0.14297E-03
   3   -0.79189E-04    0.45720E-04    0.19001E-18
   4   -0.45720E-04   -0.79189E-04   -0.81261E-19
   5    0.76322E-03   -0.44064E-03    0.00000E+00
   6    0.44064E-03    0.76322E-03    0.48756E-18
   7    0.32504E-18    0.24378E-18   -0.65009E-18
   8    0.00000E+00    0.40630E-18    0.29254E-17
   9   -0.35820E-15    0.17235E-14    0.32504E-18
  10    0.00000E+00    0.00000E+00    0.00000E+00
  11    0.00000E+00   -0.48756E-18   -0.65009E-18
  12   -0.14784E-01    0.85353E-02   -0.65009E-18
  13   -0.85353E-02   -0.14784E-01    0.16252E-18
  14   -0.65009E-18    0.24378E-18    0.19303E-01
  15    0.52039E-15   -0.16759E-14    0.00000E+00
  16    0.00000E+00    0.00000E+00    0.11376E-17
  17    0.81261E-19    0.00000E+00    0.00000E+00
  18   -0.14221E-18    0.44693E-18   -0.12189E-17
  19   -0.86695E-15    0.39743E-14    0.00000E+00
  20   -0.74792E-02    0.43181E-02   -0.20315E-19
  21   -0.43181E-02   -0.74792E-02    0.00000E+00
  22   -0.29290E-01    0.16911E-01   -0.65009E-18
  23   -0.16911E-01   -0.29290E-01    0.32504E-18
  24   -0.32504E-18   -0.40630E-18   -0.34606E-01
  25    0.59645E-15   -0.59141E-15    0.32504E-18
  26    0.16252E-17   -0.16252E-18    0.32504E-18
  27    0.00000E+00   -0.40630E-18   -0.32504E-18

 HHHHHHHHHHHHHHHHHHHHHHHHHHHHHHHHHHHHHHHHHHHHHHHHHHHHHHHHHHHHHHHHHHHHHHHHHHHHHH
 VIBRATIONAL CONTRIBUTIONS TO THE STATIC DIELECTRIC TENSOR (OSCILLATOR
 STRENGTHS) ARE PURE NUMBERS. THEY ARE COMPUTED FOR EACH nth MODE AS:

   f_(n,ij) = 1 / (4 * pi * eps0) * 4 * pi / V * Z_(n,i) * Z_(n,j) / nu_n**2

 WHERE:
  1/(4*pi*eps0)  1 A.U. [M*L**3*T**(-4)*C**(-2)]
  V              CELL VOLUME (BOHR**3) [L**3]
  Z_(n,i)        ith COMPONENT OF BORN CHARGE VECTOR IN THE BASIS
                 OF NORMAL MODES ( e*M_E**(-1/2) ) [C*T*M**(-1/2)]
  nu_n           FREQUENCY (HARTREE) [T**(-1)]
  e, M_E         UNITS OF ELECTRON CHARGE AND MASS, RESPECTIVELY
  M, L, T, C     MASS, LENGTH, TIME, CURRENT, RESPECTIVELY

 HHHHHHHHHHHHHHHHHHHHHHHHHHHHHHHHHHHHHHHHHHHHHHHHHHHHHHHHHHHHHHHHHHHHHHHHHHHHHH

 MODE      CARTESIAN AXES SYSTEM

   5       0.27271   -0.15745    0.00000
          -0.15745    0.09090    0.00000
           0.00000    0.00000    0.00000

   6       0.09090    0.15745    0.00000
           0.15745    0.27271    0.00000
           0.00000    0.00000    0.00000

  12       1.12688   -0.65060    0.00000
          -0.65060    0.37563   -0.00000
           0.00000   -0.00000    0.00000

  13       0.37563    0.65060   -0.00000
           0.65060    1.12688   -0.00000
          -0.00000   -0.00000    0.00000

  14       0.00000   -0.00000   -0.00000
          -0.00000    0.00000    0.00000
          -0.00000    0.00000    1.86333

  20       0.06517   -0.03763    0.00000
          -0.03763    0.02172   -0.00000
           0.00000   -0.00000    0.00000

  21       0.02172    0.03763    0.00000
           0.03763    0.06517    0.00000
           0.00000    0.00000    0.00000

  22       0.51127   -0.29518    0.00000
          -0.29518    0.17042   -0.00000
           0.00000   -0.00000    0.00000

  23       0.17042    0.29518   -0.00000
           0.29518    0.51127   -0.00000
          -0.00000   -0.00000    0.00000

  24       0.00000    0.00000    0.00000
           0.00000    0.00000    0.00000
           0.00000    0.00000    0.70700

 SUM TENSOR OF THE VIBRATIONAL CONTRIBUTIONS TO THE STATIC DIELECTRIC     TENSOR

           2.63471    0.00000    0.00000
           0.00000    2.63471    0.00000
           0.00000    0.00000    2.57033

 ANGLES BETWEEN CARTESIAN AXES AND CRYSTALLOGRAPHIC AXES (DEGREES)

   30.00000  90.00000  90.00000
  120.00000   0.00000  90.00000
   90.00000  90.00000   0.00000

 MODE      PRINCIPAL AXES SYSTEM             ANGLES BETWEEN PRINCIPAL AXES AND
                                             CRYSTALLOGRAPHIC AXES (DEGREES)

   5       0.36361    0.00000    0.00000          NaN 120.00000  90.00000
           0.00000    0.00000    0.00000     90.00000  30.00000  90.00000
           0.00000    0.00000    0.00000     90.00000  90.00000   0.00000

   6       0.00000    0.00000    0.00000      0.00000 120.00000  90.00000
           0.00000    0.36361    0.00000     90.00000  30.00000  90.00000
           0.00000    0.00000    0.00000     90.00000  90.00000   0.00000

  12       1.50250    0.00000    0.00000          NaN 120.00000  90.00000
           0.00000   -0.00000    0.00000     90.00000  30.00000  90.00000
           0.00000    0.00000    0.00000     90.00000  90.00000   0.00000

  13       0.00000   -0.00000    0.00000          NaN 120.00000  90.00000
          -0.00000    1.50250   -0.00000     90.00000  30.00000  90.00000
           0.00000   -0.00000    0.00000     90.00000  90.00000   0.00000

  14       0.00000   -0.00000   -0.00000     30.00000  90.00000  90.00000
          -0.00000    0.00000    0.00000    120.00000   0.00000  90.00000
          -0.00000    0.00000    1.86333     90.00000  90.00000   0.00000

  20       0.08690    0.00000    0.00000          NaN 120.00000  90.00000
           0.00000    0.00000    0.00000     90.00000  30.00000  90.00000
           0.00000    0.00000    0.00000     90.00000  90.00000   0.00000

  21       0.00000    0.00000    0.00000          NaN 120.00000  90.00000
           0.00000    0.08690    0.00000     90.00000  30.00000  90.00000
           0.00000    0.00000    0.00000     90.00000  90.00000   0.00000

  22       0.68170    0.00000    0.00000      0.00000 120.00000  90.00000
           0.00000   -0.00000    0.00000     90.00000  30.00000  90.00000
           0.00000    0.00000    0.00000     90.00000  90.00000   0.00000

  23       0.00000    0.00000    0.00000      0.00000 120.00000  90.00000
           0.00000    0.68170   -0.00000     90.00000  30.00000  90.00000
           0.00000   -0.00000    0.00000     90.00000  90.00000   0.00000

  24       0.00000    0.00000    0.00000     30.00000  90.00000  90.00000
           0.00000    0.00000    0.00000    120.00000   0.00000  90.00000
           0.00000    0.00000    0.70700     90.00000  90.00000   0.00000

 INTEGRATED IR INTENSITIES, IN UNITS OF KM/MOL, ARE COMPUTED UNDER THE
 HYPOTHESIS OF ISOTROPIC RESPONSE (I.E. POWDER SAMPLE):

   INTENS_n = 1 / (4 * pi * eps0) * pi * N_AV / 3 / c**2 *
                             * d_n * ( Z_(n,x)**2 + Z_(n,y)**2 + Z_(n,z)**2 )
            = 0.17770712E+07 * d_n * ( Z_(n,x)**2 + Z_(n,y)**2 + Z_(n,z)**2 )

 WHERE:
  1/(4*pi*eps0)  1 A.U. [M*L**3*T**(-4)*C**(-2)]
  N_AV           AVOGADRO'S NUMBER [QM**(-1)]
  c              SPEED OF LIGHT [L*T**(-1)]
  d_n            DEGENERACY OF THE MODE
  Z_(n,x)        xth COMPONENT OF BORN CHARGE VECTOR IN THE BASIS
                 OF NORMAL MODES ( e*M_E**(-1/2) ) [C*T*M**(-1/2)]
  M,L,T,C,QM     MASS, LENGTH, TIME, CURRENT, QUANTITY OF MATTER, RESPECTIVELY

 HHHHHHHHHHHHHHHHHHHHHHHHHHHHHHHHHHHHHHHHHHHHHHHHHHHHHHHHHHHHHHHHHHHHHHHHHHHHHH
 EIGENVALUES (EIGV) OF THE MASS WEIGHTED HESSIAN MATRIX AND HARMONIC TRANSVERSE
 OPTICAL (TO) FREQUENCIES. IRREP LABELS REFER TO SYMMETRY REPRESENTATION
 ANALYSIS; A AND I INDICATE WHETHER THE MODE IS ACTIVE OR INACTIVE,
 RESPECTIVELY, FOR IR AND RAMAN; INTEGRATED IR INTENSITIES IN BRACKETS.

 CONVERSION FACTORS FOR FREQUENCIES:
      1 CM**(-1) =   0.2194746E+06 HARTREE
      1 THZ      =   0.2997925E-01 CM**(-1)

 HHHHHHHHHHHHHHHHHHHHHHHHHHHHHHHHHHHHHHHHHHHHHHHHHHHHHHHHHHHHHHHHHHHHHHHHHHHHHH

    MODES         EIGV          FREQUENCIES     IRREP  IR   INTENS    RAMAN
             (HARTREE**2)   (CM**-1)     (THZ)             (KM/MOL)
    1-   1   -0.1741E-06    -91.5820   -2.7456  (B1 )   I (     0.00)   I
    2-   2    0.1190E-20      0.0000    0.0000  (A2 )   A (     0.04)   I
    3-   4    0.8648E-19      0.0000    0.0000  (E1 )   A (     0.03)   A
    5-   6    0.3155E-07     38.9835    1.1687  (E1 )   A (     2.76)   A
    7-   8    0.1025E-05    222.2192    6.6620  (E2 )   I (     0.00)   A
    9-   9    0.2372E-05    338.0316   10.1339  (B1 )   I (     0.00)   I
   10-  11    0.2727E-05    362.4104   10.8648  (E2 )   I (     0.00)   A
   12-  13    0.2865E-05    371.4695   11.1364  (E1 )   A (  1035.69)   A
   14-  14    0.2954E-05    377.1952   11.3080  (A2 )   A (   662.16)   I
   15-  15    0.2986E-05    379.2316   11.3691  (B2 )   I (     0.00)   I
   16-  16    0.3536E-05    412.7032   12.3725  (A1 )   I (     0.00)   A
   17-  18    0.9304E-05    669.4555   20.0698  (E2 )   I (     0.00)   A
   19-  19    0.1236E-04    771.6186   23.1325  (B2 )   I (     0.00)   I
   20-  21    0.1268E-04    781.4451   23.4271  (E1 )   A (   265.08)   A
   22-  23    0.2479E-04   1092.6450   32.7567  (E1 )   A (  4065.57)   A
   24-  24    0.2502E-04   1097.8129   32.9116  (A2 )   A (  2128.22)   I
   25-  25    0.2626E-04   1124.7665   33.7197  (B1 )   I (     0.00)   I
   26-  27    0.2940E-04   1190.0820   35.6778  (E2 )   I (     0.00)   A

 NORMAL MODES NORMALIZED TO CLASSICAL AMPLITUDES

 FREQ(CM**-1)    -91.58      0.00      0.00      0.00     38.98     38.98

 AT.   1 SI X    -0.0321    0.0000    0.0646    0.0373    0.0028    0.0428
            Y    -0.0186    0.0000   -0.0373    0.0646    0.0396    0.0028
            Z     0.0000    0.0746    0.0000    0.0000    0.0000    0.0000
 AT.   2 SI X     0.0321    0.0000    0.0646    0.0373    0.0384   -0.0190
            Y    -0.0186    0.0000   -0.0373    0.0646   -0.0222   -0.0329
            Z     0.0000    0.0746    0.0000    0.0000    0.0000    0.0000
 AT.   3 SI X     0.0000    0.0000    0.0646    0.0373   -0.0329   -0.0190
            Y     0.0371    0.0000   -0.0373    0.0646   -0.0222    0.0384
            Z     0.0000    0.0746    0.0000    0.0000    0.0000    0.0000
 AT.   4 O  X     0.0718   -0.0000    0.0646    0.0373   -0.0024   -0.1294
            Y     0.0414   -0.0000   -0.0373    0.0646   -0.1266   -0.0024
            Z    -0.0750    0.0746   -0.0000   -0.0000    0.0846    0.1465
 AT.   5 O  X     0.0718    0.0000    0.0646    0.0373   -0.0024   -0.1294
            Y     0.0414    0.0000   -0.0373    0.0646   -0.1266   -0.0024
            Z     0.0750    0.0746    0.0000    0.0000   -0.0846   -0.1465
 AT.   6 O  X    -0.0718    0.0000    0.0646    0.0373   -0.1133    0.0626
            Y     0.0414   -0.0000   -0.0373    0.0646    0.0654    0.1084
            Z    -0.0750    0.0746    0.0000    0.0000   -0.1691    0.0000
 AT.   7 O  X     0.0000    0.0000    0.0646    0.0373    0.1084    0.0626
            Y    -0.0829    0.0000   -0.0373    0.0646    0.0654   -0.1133
            Z    -0.0750    0.0746   -0.0000    0.0000    0.0846   -0.1465
 AT.   8 O  X     0.0000    0.0000    0.0646    0.0373    0.1084    0.0626
            Y    -0.0829   -0.0000   -0.0373    0.0646    0.0654   -0.1133
            Z     0.0750    0.0746    0.0000   -0.0000   -0.0846    0.1465
 AT.   9 O  X    -0.0718   -0.0000    0.0646    0.0373   -0.1133    0.0626
            Y     0.0414    0.0000   -0.0373    0.0646    0.0654    0.1084
            Z     0.0750    0.0746   -0.0000    0.0000    0.1691    0.0000

 FREQ(CM**-1)    222.22    222.22    338.03    362.41    362.41    371.47

 AT.   1 SI X     0.0000    0.0000    0.0467    0.0000    0.0000   -0.0263
            Y     0.0000    0.0000    0.0269    0.0000    0.0000    0.0390
            Z    -0.0276   -0.0159    0.0000    0.0033    0.0019    0.0000
 AT.   2 SI X     0.0000    0.0000   -0.0467    0.0000    0.0000   -0.0056
            Y     0.0000    0.0000    0.0269    0.0000    0.0000    0.0032
            Z     0.0276   -0.0159    0.0000   -0.0033    0.0019    0.0000
 AT.   3 SI X     0.0000    0.0000    0.0000    0.0000    0.0000   -0.0469
            Y     0.0000    0.0000   -0.0539    0.0000    0.0000    0.0032
            Z     0.0000    0.0319    0.0000    0.0000   -0.0039    0.0000
 AT.   4 O  X     0.0096   -0.0479   -0.0077    0.0410    0.0032    0.0230
            Y    -0.0479    0.0649   -0.0044    0.0032    0.0374   -0.0355
            Z     0.0338    0.0195   -0.0331   -0.0535   -0.0309   -0.0210
 AT.   5 O  X    -0.0096    0.0479   -0.0077   -0.0410   -0.0032    0.0230
            Y     0.0479   -0.0649   -0.0044   -0.0032   -0.0374   -0.0355
            Z     0.0338    0.0195    0.0331   -0.0535   -0.0309    0.0210
 AT.   6 O  X     0.0096    0.0479    0.0077    0.0410   -0.0032    0.0037
            Y     0.0479    0.0649   -0.0044   -0.0032    0.0374   -0.0021
            Z    -0.0338    0.0195   -0.0331    0.0535   -0.0309    0.0419
 AT.   7 O  X     0.0925    0.0000    0.0000    0.0355    0.0000    0.0422
            Y     0.0000   -0.0180    0.0088    0.0000    0.0429   -0.0021
            Z     0.0000   -0.0390   -0.0331    0.0000    0.0617   -0.0210
 AT.   8 O  X    -0.0925    0.0000    0.0000   -0.0355    0.0000    0.0422
            Y     0.0000    0.0180    0.0088    0.0000   -0.0429   -0.0021
            Z     0.0000   -0.0390    0.0331    0.0000    0.0617    0.0210
 AT.   9 O  X    -0.0096   -0.0479    0.0077   -0.0410    0.0032    0.0037
            Y    -0.0479   -0.0649   -0.0044    0.0032   -0.0374   -0.0021
            Z    -0.0338    0.0195    0.0331    0.0535   -0.0309   -0.0419

 FREQ(CM**-1)    371.47    377.20    379.23    412.70    669.46    669.46

 AT.   1 SI X     0.0087    0.0000   -0.0032    0.0000    0.0000    0.0000
            Y    -0.0263    0.0000    0.0056    0.0000    0.0000    0.0000
            Z     0.0000    0.0339    0.0000    0.0000   -0.0501   -0.0289
 AT.   2 SI X    -0.0271    0.0000   -0.0032    0.0000    0.0000    0.0000
            Y    -0.0469    0.0000   -0.0056    0.0000    0.0000    0.0000
            Z     0.0000    0.0339    0.0000    0.0000    0.0501   -0.0289
 AT.   3 SI X    -0.0271    0.0000    0.0064    0.0000    0.0000    0.0000
            Y    -0.0056    0.0000    0.0000    0.0000    0.0000    0.0000
            Z     0.0000    0.0339    0.0000    0.0000    0.0000    0.0578
 AT.   4 O  X    -0.0090    0.0329   -0.0286   -0.0276    0.0144    0.0169
            Y     0.0230    0.0190    0.0495    0.0477    0.0169   -0.0051
            Z    -0.0363   -0.0296    0.0000    0.0000    0.0044    0.0025
 AT.   5 O  X    -0.0090   -0.0329   -0.0286    0.0276   -0.0144   -0.0169
            Y     0.0230   -0.0190    0.0495   -0.0477   -0.0169    0.0051
            Z     0.0363   -0.0296    0.0000    0.0000    0.0044    0.0025
 AT.   6 O  X     0.0244   -0.0329   -0.0286   -0.0276    0.0144   -0.0169
            Y     0.0422    0.0190   -0.0495   -0.0477   -0.0169   -0.0051
            Z     0.0000   -0.0296    0.0000    0.0000   -0.0044    0.0025
 AT.   7 O  X     0.0244    0.0000    0.0572    0.0551   -0.0149    0.0000
            Y     0.0037   -0.0380    0.0000    0.0000    0.0000    0.0241
            Z     0.0363   -0.0296    0.0000    0.0000    0.0000   -0.0050
 AT.   8 O  X     0.0244    0.0000    0.0572   -0.0551    0.0149    0.0000
            Y     0.0037    0.0380    0.0000   -0.0000    0.0000   -0.0241
            Z    -0.0363   -0.0296    0.0000    0.0000    0.0000   -0.0050
 AT.   9 O  X     0.0244    0.0329   -0.0286    0.0276   -0.0144    0.0169
            Y     0.0422   -0.0190   -0.0495    0.0477    0.0169    0.0051
            Z     0.0000   -0.0296    0.0000    0.0000   -0.0044    0.0025

 FREQ(CM**-1)    771.62    781.45    781.45   1092.65   1092.65   1097.81

 AT.   1 SI X    -0.0214   -0.0100   -0.0439   -0.0148   -0.0041    0.0000
            Y     0.0371   -0.0323   -0.0100    0.0129   -0.0148    0.0000
            Z     0.0000    0.0000    0.0000    0.0000    0.0000   -0.0174
 AT.   2 SI X    -0.0214   -0.0431    0.0133   -0.0110   -0.0107    0.0000
            Y    -0.0371    0.0249    0.0230    0.0063   -0.0186    0.0000
            Z     0.0000    0.0000    0.0000    0.0000    0.0000   -0.0174
 AT.   3 SI X     0.0429    0.0230    0.0133   -0.0186   -0.0107    0.0000
            Y     0.0000    0.0249   -0.0431    0.0063   -0.0110    0.0000
            Z     0.0000    0.0000    0.0000    0.0000    0.0000   -0.0174
 AT.   4 O  X     0.0021    0.0088   -0.0056    0.0129    0.0252    0.0220
            Y    -0.0036   -0.0157    0.0088    0.0103    0.0129    0.0127
            Z     0.0000    0.0004    0.0007    0.0130    0.0225    0.0152
 AT.   5 O  X     0.0021    0.0088   -0.0056    0.0129    0.0252   -0.0220
            Y    -0.0036   -0.0157    0.0088    0.0103    0.0129   -0.0127
            Z     0.0000   -0.0004   -0.0007   -0.0130   -0.0225    0.0152
 AT.   6 O  X     0.0021   -0.0004    0.0104    0.0283   -0.0014   -0.0220
            Y     0.0036    0.0003    0.0180   -0.0163   -0.0024    0.0127
            Z     0.0000   -0.0008    0.0000   -0.0260    0.0000    0.0152
 AT.   7 O  X    -0.0042    0.0180    0.0104   -0.0024   -0.0014    0.0000
            Y     0.0000    0.0003   -0.0004   -0.0163    0.0283   -0.0254
            Z     0.0000    0.0004   -0.0007    0.0130   -0.0225    0.0152
 AT.   8 O  X    -0.0042    0.0180    0.0104   -0.0024   -0.0014    0.0000
            Y     0.0000    0.0003   -0.0004   -0.0163    0.0283    0.0254
            Z     0.0000   -0.0004    0.0007   -0.0130    0.0225    0.0152
 AT.   9 O  X     0.0021   -0.0004    0.0104    0.0283   -0.0014    0.0220
            Y     0.0036    0.0003    0.0180   -0.0163   -0.0024   -0.0127
            Z     0.0000    0.0008    0.0000    0.0260    0.0000    0.0152

 FREQ(CM**-1)   1124.77   1190.08   1190.08

 AT.   1 SI X     0.0148    0.0000    0.0000
            Y     0.0085    0.0000    0.0000
            Z     0.0000    0.0159    0.0092
 AT.   2 SI X    -0.0148    0.0000    0.0000
            Y     0.0085    0.0000    0.0000
            Z     0.0000   -0.0159    0.0092
 AT.   3 SI X     0.0000    0.0000    0.0000
            Y    -0.0171    0.0000    0.0000
            Z     0.0000    0.0000   -0.0184
 AT.   4 O  X     0.0200    0.0259    0.0141
            Y     0.0115    0.0141    0.0096
            Z     0.0181    0.0221    0.0127
 AT.   5 O  X     0.0200   -0.0259   -0.0141
            Y     0.0115   -0.0141   -0.0096
            Z    -0.0181    0.0221    0.0127
 AT.   6 O  X    -0.0200    0.0259   -0.0141
            Y     0.0115   -0.0141    0.0096
            Z     0.0181   -0.0221    0.0127
 AT.   7 O  X     0.0000    0.0014    0.0000
            Y    -0.0231    0.0000    0.0341
            Z     0.0181    0.0000   -0.0255
 AT.   8 O  X     0.0000   -0.0014    0.0000
            Y    -0.0231    0.0000   -0.0341
            Z    -0.0181    0.0000   -0.0255
 AT.   9 O  X    -0.0200   -0.0259    0.0141
            Y     0.0115    0.0141   -0.0096
            Z    -0.0181   -0.0221    0.0127

 ESTIMATED NUMBER OF IMAGINARY FREQS    1


 *******************************************************************************

 VIBRATIONAL TEMPERATURES (K) [MODE NUMBER;IRREP]

 TO MODES
    56.1 [   5;E1 ]    56.1 [   6;E1 ]   319.7 [   7;E2 ]   319.7 [   8;E2 ]
   486.4 [   9;B1 ]   521.4 [  10;E2 ]   521.4 [  11;E2 ]   534.5 [  12;E1 ]
   534.5 [  13;E1 ]   542.7 [  14;A2 ]   545.6 [  15;B2 ]   593.8 [  16;A1 ]
   963.2 [  17;E2 ]   963.2 [  18;E2 ]  1110.2 [  19;B2 ]  1124.3 [  20;E1 ]
  1124.3 [  21;E1 ]  1572.1 [  22;E1 ]  1572.1 [  23;E1 ]  1579.5 [  24;A2 ]
  1618.3 [  25;B1 ]  1712.3 [  26;E2 ]  1712.3 [  27;E2 ]

 *******************************************************************************

 HARMONIC VIBRATIONAL CONTRIBUTIONS TO THERMODYNAMIC FUNCTIONS AT GIVEN
 TEMPERATURE AND PRESSURE:

 (EL = ELECTRONIC ENERGY
  E0 = ZERO-POINT ENERGY
  ET = THERMAL CONTRIBUTION TO THE VIBRATIONAL ENERGY
  PV = PRESSURE * VOLUME
  TS = TEMPERATURE * ENTROPY)

                          AU/CELL             EV/CELL                 KJ/MOL
 EL            :   -1316.474135120265  -35823.082426940942    -3456402.35466283
 E0            :       0.031800441153       0.865333996496          83.49204648


 *******************************************************************************

 THERMODYNAMIC FUNCTIONS WITH VIBRATIONAL CONTRIBUTIONS

 AT (T =  298.15 K, P =   0.10132500E+00 MPA):

                          AU/CELL             EV/CELL                 KJ/MOL
 ET            :       0.006115851802       0.166420788196          16.05716664
 PV            :       0.000002930038       0.000079730388           0.00769281
 TS            :       0.011785390236       0.320696772226          30.94253770
 ET+PV-TS      :      -0.005666608396      -0.154196253642         -14.87767825
 EL+E0+ET+PV-TS:   -1316.448001287509  -35822.371289198090    -3456333.74029459

 OTHER THERMODYNAMIC FUNCTIONS:

                      mHARTREE/(CELL*K)     mEV/(CELL*K)              J/(MOL*K)
 ENTROPY       :       0.039528392540       1.075622244596         103.78177999
 HEAT CAPACITY :       0.040143159589       1.092350906466         105.39585065

 *******************************************************************************
 TTTTTTTTTTTTTTTTTTTTTTTTTTTTTT END         TELAPSE      204.41 TCPU      203.37
 EEEEEEEEEE TERMINATION  DATE 16 01 2014 TIME 11:31:06.4
NODE    0 CPU TIME =       203.373
NODE    1 CPU TIME =       203.345
NODE    2 CPU TIME =       203.405
NODE    3 CPU TIME =       203.285
NODE    4 CPU TIME =       203.241
NODE    5 CPU TIME =       203.401
NODE    6 CPU TIME =       203.401
NODE    7 CPU TIME =       203.381
NODE    8 CPU TIME =       203.197
NODE    9 CPU TIME =       203.193
NODE   10 CPU TIME =       203.361
NODE   11 CPU TIME =       203.185
NODE   12 CPU TIME =       203.189
NODE   13 CPU TIME =       203.221
NODE   14 CPU TIME =       203.305
NODE   15 CPU TIME =       203.165
    TOTAL CPU TIME =      3252.643
Thu Jan 16 11:31:07 CET 2014
total 63624
-rw------- 1 civalleri users     1350 Jan 16 11:31 BORN.DAT
-rw------- 1 civalleri users       73 Jan 16 11:31 ERROR
-rw------- 1 civalleri users  1247711 Jan 16 11:31 FREQINFO.DAT
-rw------- 1 civalleri users    15492 Jan 16 11:31 HESSFREQ.DAT
-rw-r--r-- 1 civalleri users      882 Jan 16 11:27 INPUT
-rw------- 1 civalleri users        0 Jan 16 11:28 MULLIKEN.DAT
-rwxr-xr-x 1 civalleri users 43239964 Jan 16 11:27 Pcrystal-64567
-rw------- 1 civalleri users    61746 Jan 16 11:31 SCFOUT.LOG
-rw------- 1 civalleri users        0 Jan 16 11:27 dffit3.dat
-rw------- 1 civalleri users        0 Jan 16 11:27 fort.1.pe00
-rw------- 1 civalleri users        0 Jan 16 11:27 fort.1.pe01
-rw------- 1 civalleri users        0 Jan 16 11:27 fort.1.pe02
-rw------- 1 civalleri users        0 Jan 16 11:27 fort.1.pe03
-rw------- 1 civalleri users        0 Jan 16 11:27 fort.1.pe04
-rw------- 1 civalleri users        0 Jan 16 11:27 fort.1.pe05
-rw------- 1 civalleri users        0 Jan 16 11:27 fort.1.pe06
-rw------- 1 civalleri users        0 Jan 16 11:27 fort.1.pe07
-rw------- 1 civalleri users      560 Jan 16 11:31 fort.10.pe00
-rw------- 1 civalleri users     7752 Jan 16 11:28 fort.10.pe01
-rw------- 1 civalleri users   304712 Jan 16 11:30 fort.10.pe02
-rw------- 1 civalleri users   304712 Jan 16 11:30 fort.10.pe03
-rw------- 1 civalleri users   304712 Jan 16 11:30 fort.10.pe04
-rw------- 1 civalleri users   304712 Jan 16 11:30 fort.10.pe05
-rw------- 1 civalleri users   304712 Jan 16 11:30 fort.10.pe06
-rw------- 1 civalleri users   304712 Jan 16 11:30 fort.10.pe07
-rw------- 1 civalleri users   232928 Jan 16 11:30 fort.11.pe00
-rw------- 1 civalleri users   232928 Jan 16 11:30 fort.11.pe01
-rw------- 1 civalleri users   232928 Jan 16 11:30 fort.11.pe02
-rw------- 1 civalleri users   232928 Jan 16 11:30 fort.11.pe03
-rw------- 1 civalleri users   232928 Jan 16 11:30 fort.11.pe04
-rw------- 1 civalleri users   232928 Jan 16 11:30 fort.11.pe05
-rw------- 1 civalleri users   232928 Jan 16 11:30 fort.11.pe06
-rw------- 1 civalleri users   232928 Jan 16 11:30 fort.11.pe07
-rw------- 1 civalleri users    13836 Jan 16 11:30 fort.12
-rw------- 1 civalleri users   449000 Jan 16 11:28 fort.13
-rw------- 1 civalleri users        0 Jan 16 11:27 fort.17.pe01
-rw------- 1 civalleri users        0 Jan 16 11:27 fort.17.pe02
-rw------- 1 civalleri users        0 Jan 16 11:27 fort.17.pe03
-rw------- 1 civalleri users        0 Jan 16 11:27 fort.17.pe04
-rw------- 1 civalleri users        0 Jan 16 11:27 fort.17.pe05
-rw------- 1 civalleri users        0 Jan 16 11:27 fort.17.pe06
-rw------- 1 civalleri users        0 Jan 16 11:27 fort.17.pe07
-rw------- 1 civalleri users        0 Jan 16 11:27 fort.18.pe00
-rw------- 1 civalleri users        0 Jan 16 11:27 fort.18.pe01
-rw------- 1 civalleri users        0 Jan 16 11:27 fort.18.pe02
-rw------- 1 civalleri users        0 Jan 16 11:27 fort.18.pe03
-rw------- 1 civalleri users        0 Jan 16 11:27 fort.18.pe04
-rw------- 1 civalleri users        0 Jan 16 11:27 fort.18.pe05
-rw------- 1 civalleri users        0 Jan 16 11:27 fort.18.pe06
-rw------- 1 civalleri users        0 Jan 16 11:27 fort.18.pe07
-rw------- 1 civalleri users     2520 Jan 16 11:31 fort.19.pe00
-rw------- 1 civalleri users        0 Jan 16 11:27 fort.19.pe01
-rw------- 1 civalleri users        0 Jan 16 11:27 fort.19.pe02
-rw------- 1 civalleri users        0 Jan 16 11:27 fort.19.pe03
-rw------- 1 civalleri users        0 Jan 16 11:27 fort.19.pe04
-rw------- 1 civalleri users        0 Jan 16 11:27 fort.19.pe05
-rw------- 1 civalleri users        0 Jan 16 11:27 fort.19.pe06
-rw------- 1 civalleri users        0 Jan 16 11:27 fort.19.pe07
-rw------- 1 civalleri users   183340 Jan 16 11:28 fort.20
-rw------- 1 civalleri users      644 Jan 16 11:28 fort.28
-rw------- 1 civalleri users        0 Jan 16 11:27 fort.28.pe00
-rw------- 1 civalleri users        0 Jan 16 11:27 fort.28.pe01
-rw------- 1 civalleri users        0 Jan 16 11:27 fort.28.pe02
-rw------- 1 civalleri users        0 Jan 16 11:27 fort.28.pe03
-rw------- 1 civalleri users        0 Jan 16 11:27 fort.28.pe04
-rw------- 1 civalleri users        0 Jan 16 11:27 fort.28.pe05
-rw------- 1 civalleri users        0 Jan 16 11:27 fort.28.pe06
-rw------- 1 civalleri users        0 Jan 16 11:27 fort.28.pe07
-rw------- 1 civalleri users      644 Jan 16 11:31 fort.29
-rw------- 1 civalleri users        0 Jan 16 11:27 fort.29.pe00
-rw------- 1 civalleri users        0 Jan 16 11:27 fort.29.pe01
-rw------- 1 civalleri users        0 Jan 16 11:27 fort.29.pe02
-rw------- 1 civalleri users        0 Jan 16 11:27 fort.29.pe03
-rw------- 1 civalleri users        0 Jan 16 11:27 fort.29.pe04
-rw------- 1 civalleri users        0 Jan 16 11:27 fort.29.pe05
-rw------- 1 civalleri users        0 Jan 16 11:27 fort.29.pe06
-rw------- 1 civalleri users        0 Jan 16 11:27 fort.29.pe07
-rw------- 1 civalleri users        0 Jan 16 11:27 fort.3.pe00
-rw------- 1 civalleri users        0 Jan 16 11:27 fort.3.pe01
-rw------- 1 civalleri users   226592 Jan 16 11:30 fort.3.pe02
-rw------- 1 civalleri users   226592 Jan 16 11:30 fort.3.pe03
-rw------- 1 civalleri users   226592 Jan 16 11:30 fort.3.pe04
-rw------- 1 civalleri users   226592 Jan 16 11:30 fort.3.pe05
-rw------- 1 civalleri users   226592 Jan 16 11:30 fort.3.pe06
-rw------- 1 civalleri users   226592 Jan 16 11:30 fort.3.pe07
-rw------- 1 civalleri users        0 Jan 16 11:27 fort.38.pe00
-rw------- 1 civalleri users        0 Jan 16 11:27 fort.38.pe01
-rw------- 1 civalleri users        0 Jan 16 11:27 fort.38.pe02
-rw------- 1 civalleri users        0 Jan 16 11:27 fort.38.pe03
-rw------- 1 civalleri users        0 Jan 16 11:27 fort.38.pe04
-rw------- 1 civalleri users        0 Jan 16 11:27 fort.38.pe05
-rw------- 1 civalleri users        0 Jan 16 11:27 fort.38.pe06
-rw------- 1 civalleri users        0 Jan 16 11:27 fort.38.pe07
-rw------- 1 civalleri users        0 Jan 16 11:27 fort.40.pe00
-rw------- 1 civalleri users        0 Jan 16 11:27 fort.40.pe01
-rw------- 1 civalleri users        0 Jan 16 11:27 fort.40.pe02
-rw------- 1 civalleri users        0 Jan 16 11:27 fort.40.pe03
-rw------- 1 civalleri users        0 Jan 16 11:27 fort.40.pe04
-rw------- 1 civalleri users        0 Jan 16 11:27 fort.40.pe05
-rw------- 1 civalleri users        0 Jan 16 11:27 fort.40.pe06
-rw------- 1 civalleri users        0 Jan 16 11:27 fort.40.pe07
-rw------- 1 civalleri users        0 Jan 16 11:27 fort.61.pe00
-rw------- 1 civalleri users        0 Jan 16 11:27 fort.61.pe01
-rw------- 1 civalleri users        0 Jan 16 11:27 fort.61.pe02
-rw------- 1 civalleri users        0 Jan 16 11:27 fort.61.pe03
-rw------- 1 civalleri users        0 Jan 16 11:27 fort.61.pe04
-rw------- 1 civalleri users        0 Jan 16 11:27 fort.61.pe05
-rw------- 1 civalleri users        0 Jan 16 11:27 fort.61.pe06
-rw------- 1 civalleri users        0 Jan 16 11:27 fort.61.pe07
-rw------- 1 civalleri users     6292 Jan 16 11:31 fort.62.pe00
-rw------- 1 civalleri users     5332 Jan 16 11:31 fort.62.pe01
-rw------- 1 civalleri users     5588 Jan 16 11:31 fort.62.pe02
-rw------- 1 civalleri users     5908 Jan 16 11:31 fort.62.pe03
-rw------- 1 civalleri users     5012 Jan 16 11:31 fort.62.pe04
-rw------- 1 civalleri users     3444 Jan 16 11:31 fort.62.pe05
-rw------- 1 civalleri users    11720 Jan 16 11:31 fort.62.pe06
-rw------- 1 civalleri users     3588 Jan 16 11:31 fort.62.pe07
-rw------- 1 civalleri users 10730880 Jan 16 11:31 fort.70
-rw------- 1 civalleri users     7752 Jan 16 11:28 fort.8.pe00
-rw------- 1 civalleri users     7752 Jan 16 11:28 fort.8.pe01
-rw------- 1 civalleri users   304712 Jan 16 11:31 fort.8.pe02
-rw------- 1 civalleri users   304712 Jan 16 11:31 fort.8.pe03
-rw------- 1 civalleri users   304712 Jan 16 11:31 fort.8.pe04
-rw------- 1 civalleri users   304712 Jan 16 11:31 fort.8.pe05
-rw------- 1 civalleri users   304712 Jan 16 11:31 fort.8.pe06
-rw------- 1 civalleri users   304712 Jan 16 11:31 fort.8.pe07
-rw------- 1 civalleri users        0 Jan 16 11:27 fort.82.pe00
-rw------- 1 civalleri users        0 Jan 16 11:27 fort.82.pe01
-rw------- 1 civalleri users        0 Jan 16 11:27 fort.82.pe02
-rw------- 1 civalleri users        0 Jan 16 11:27 fort.82.pe03
-rw------- 1 civalleri users        0 Jan 16 11:27 fort.82.pe04
-rw------- 1 civalleri users        0 Jan 16 11:27 fort.82.pe05
-rw------- 1 civalleri users        0 Jan 16 11:27 fort.82.pe06
-rw------- 1 civalleri users        0 Jan 16 11:27 fort.82.pe07
-rw------- 1 civalleri users        0 Jan 16 11:27 fort.83.pe00
-rw------- 1 civalleri users        0 Jan 16 11:27 fort.83.pe01
-rw------- 1 civalleri users        0 Jan 16 11:27 fort.83.pe02
-rw------- 1 civalleri users        0 Jan 16 11:27 fort.83.pe03
-rw------- 1 civalleri users        0 Jan 16 11:27 fort.83.pe04
-rw------- 1 civalleri users        0 Jan 16 11:27 fort.83.pe05
-rw------- 1 civalleri users        0 Jan 16 11:27 fort.83.pe06
-rw------- 1 civalleri users        0 Jan 16 11:27 fort.83.pe07
-rw------- 1 civalleri users        0 Jan 16 11:27 fort.84.pe00
-rw------- 1 civalleri users        0 Jan 16 11:27 fort.84.pe01
-rw------- 1 civalleri users        0 Jan 16 11:27 fort.84.pe02
-rw------- 1 civalleri users        0 Jan 16 11:27 fort.84.pe03
-rw------- 1 civalleri users        0 Jan 16 11:27 fort.84.pe04
-rw------- 1 civalleri users        0 Jan 16 11:27 fort.84.pe05
-rw------- 1 civalleri users        0 Jan 16 11:27 fort.84.pe06
-rw------- 1 civalleri users        0 Jan 16 11:27 fort.84.pe07
-rw------- 1 civalleri users   183340 Jan 16 11:28 fort.9
-rw------- 1 civalleri users   242544 Jan 16 11:30 fort.95.pe00
-rw------- 1 civalleri users   242544 Jan 16 11:30 fort.95.pe01
-rw------- 1 civalleri users   242544 Jan 16 11:30 fort.95.pe02
-rw------- 1 civalleri users   242544 Jan 16 11:30 fort.95.pe03
-rw------- 1 civalleri users   242544 Jan 16 11:30 fort.95.pe04
-rw------- 1 civalleri users   242544 Jan 16 11:30 fort.95.pe05
-rw------- 1 civalleri users   242544 Jan 16 11:30 fort.95.pe06
-rw------- 1 civalleri users   242544 Jan 16 11:30 fort.95.pe07
