/home/civalleri/bin/svn586_131211_pub1_0_1/bin/Linux-ifort_XE_openmpi_emt64/v1.0.1//Pcrystal
/data/civalleri/64565
script started on node2
QUARTZ BETA
CRYSTAL
0 0 0
180
 4.99363342     5.49238876 
2
14    -5.000000000000E-01 -5.000000000000E-01  3.333333333333E-01
 8     2.095184456115E-01 -2.095184456115E-01 -1.666666666667E-01
OPTGEOM
FULLOPTG
FINALRUN
4
END
END
14 5
2 0 6 2.0 1.0
2 1 6 8.0 1.0
2 1 2 4.0 1.0
0 1 1 0.0 1.0
0.13 1.0 1.0
0 3 1 0.0 1.0
0.5 1.0
8 4
0 0 6 2.0 1.0
0.5484671660D+04 0.1831074430D-02
0.8252349460D+03 0.1395017220D-01
0.1880469580D+03 0.6844507810D-01
0.5296450000D+02 0.2327143360D+00
0.1689757040D+02 0.4701928980D+00
0.5799635340D+01 0.3585208530D+00
0 1 3 6.0 1.0
0.1553961625D+02 -0.1107775490D+00 0.7087426820D-01
0.3599933586D+01 -0.1480262620D+00 0.3397528390D+00
0.1013761750D+01 0.1130767010D+01 0.7271585770D+00
0 1 1 0.0 1.0
0.2742 0.100000D+01 0.100000D+01
0 3 1 0.0 1.0
0.6 1.0
99 0
END
DFT
EXCHANGE
PBESOL
CORRELAT
PBESOL
XLGRID
END
LEVSHIFT
6 0
SCFDIR
SHRINK
3 3
FMIXING
20
TOLDEE
7
END
Thu Jan 16 10:58:53 CET 2014
 PROCESS            2  OF            8  WORKING
 PROCESS            6  OF            8  WORKING
 PROCESS            0  OF            8  WORKING
 PROCESS            1  OF            8  WORKING
 PROCESS            3  OF            8  WORKING
 PROCESS            4  OF            8  WORKING
 PROCESS            5  OF            8  WORKING
 PROCESS            7  OF            8  WORKING

         
 *******************************************************************************
 *                                                                             *
 *                               CRYSTAL09                                     *
 *                      public : 1.0.1 - Dec 11th, 2013                        *
 *                       HTTP://WWW.CRYSTAL.UNITO.IT                           *
 *                                                                             *
 *                              MAIN AUTHORS                                   *
 *                                                                             *
 *  R. DOVESI(1,11), V.R. SAUNDERS(2), C. ROETTI(1,11), R. ORLANDO(1,11),      *
 *  C.M. ZICOVICH-WILSON(1,3), F. PASCALE(4), B. CIVALLERI(1,11),              *
 *  K. DOLL(5), N.M. HARRISON(2,6), I. J. BUSH(7), Ph. D'ARCO(8),              *
 *  M. LLUNELL(9), M. CAUSA'(10), Y. NOEL(8)                                   *
 *                                                                             *
 *        CONTRIBUTIONS TO THE CURRENT RELEASE HAVE BEEN GIVEN BY              *
 *                                                                             *
 *  L. MASCHIO(1,11), S. CASASSA(1,11), A. ERBA(1,11), M. FERRABONE(1,11),     *
 *  M. DE LA PIERRE(1,11), M. FERRERO(1,11), V. LACIVITA(1,11),                *
 *  J. BAIMA(1,11), E. ALBANESE(1,11), M.F. PEINTINGER(12), R. BAST(13),       *
 *  M. RERAT(14), B. KIRTMAN(15), R. DEMICHELIS(1,16)                          *
 *                                                                             *
 * (1) THEORETICAL CHEMISTRY GROUP - UNIVERSITA' DI TORINO - TORINO (ITALY)    *
 *     http://www.crystal.unito.it                                             *
 * (2) COMPUTATIONAL SCIENCE & ENGINEERING DEPARTMENT - STFC DARESBURY (UK)    *
 *     http://www.stfc.ac.uk/CSE/randd/cmg/CRYSTAL/25806.aspx                  *
 * (3) UNIVERSIDAD AUTONOMA DEL ESTADO DE MORELOS - CUERNAVACA (MEXICO)        *
 * (4) UNIVERSITE' DE LORRAINE - NANCY (FRANCE)                                *
 * (5) UNIVERSITAET ULM - ULM (GERMANY); (6) IMPERIAL COLLEGE - LONDON (UK)    *
 * (7) NAG - OXFORD (UK); (8) UPMC - SORBONNE UNIVERSITES - PARIS (FRANCE)     *
 * (9) UNIVERSIDAD DE BARCELONA - BARCELONA (SPAIN)                            *
 *(10) UNIVERSITA' DI NAPOLI "FEDERICO II" - NAPOLI (ITALY)                    *
 *(11) NIS - NANOSTRUCTURED INTERFACES AND SURFACES - TORINO (ITALY)           *
 *(12) MPI FUER CHEMISCHE ENERGIEKONVERSION - MUELHEIM AN DER RUHR (GERMANY)   *
 *(13) UNIVERSITY OF STOCKHOLM - STOCKHOLM (SWEDEN)                            *
 *(14) UNIVERSITE' DE PAU ET DES PAYS DE L'ADOUR - PAU (FRANCE)                *
 *(15) UNIVERSITY OF CALIFORNIA SANTA BARBARA - SANTA BARBARA (USA)            *
 *(16) CURTIN UNIVERSITY - PERTH (AUSTRALIA)                                   *
 *                                                                             *
 ********************************************************************************
 EEEEEEEEEE STARTING  DATE 16 01 2014 TIME 10:58:54.5
 QUARTZ BETA                                                                     

 CRYSTAL CALCULATION
 (INPUT ACCORDING TO THE INTERNATIONAL TABLES FOR X-RAY CRYSTALLOGRAPHY)
 CRYSTAL FAMILY                       :  HEXAGONAL   
 CRYSTAL CLASS  (GROTH - 1921)        :  HEXAGONAL TRAPEZOHEDRAL              

 SPACE GROUP (NONCENTROSYMMETRIC)     :  P 62 2 2        

 LATTICE PARAMETERS  (ANGSTROMS AND DEGREES) - CONVENTIONAL CELL
        A           B           C        ALPHA        BETA       GAMMA
     4.99363     4.99363     5.49239    90.00000    90.00000   120.00000


 NUMBER OF IRREDUCIBLE ATOMS IN THE CONVENTIONAL CELL:    2

 INPUT COORDINATES

 ATOM AT. N.              COORDINATES
   1  14    -5.000000000000E-01 -5.000000000000E-01  3.333333333333E-01
   2   8     2.095184456115E-01 -2.095184456115E-01 -1.666666666667E-01

 *******************************************************************************

 << INFORMATION >>: FROM NOW ON, ALL COORDINATES REFER TO THE PRIMITIVE CELL

 *******************************************************************************

 LATTICE PARAMETERS  (ANGSTROMS AND DEGREES) - PRIMITIVE CELL
       A          B          C         ALPHA     BETA     GAMMA        VOLUME
    4.99363    4.99363    5.49239    90.00000  90.00000 120.00000    118.611068

 COORDINATES OF THE EQUIVALENT ATOMS (FRACTIONAL UNITS)

 N. ATOM EQUIV AT. N.          X                  Y                  Z

   1   1   1   14 SI    5.00000000000E-01  5.00000000000E-01  3.33333333333E-01
   2   1   2   14 SI   -5.00000000000E-01  0.00000000000E+00 -3.33066907388E-14
   3   1   3   14 SI    0.00000000000E+00 -5.00000000000E-01 -3.33333333333E-01

   4   2   1    8 O     2.09518445611E-01 -2.09518445611E-01 -1.66666666667E-01
   5   2   2    8 O    -2.09518445611E-01  2.09518445611E-01 -1.66666666667E-01
   6   2   3    8 O     2.09518445611E-01  4.19036891223E-01  5.00000000000E-01
   7   2   4    8 O    -4.19036891223E-01 -2.09518445611E-01  1.66666666667E-01
   8   2   5    8 O     4.19036891223E-01  2.09518445611E-01  1.66666666667E-01
   9   2   6    8 O    -2.09518445611E-01 -4.19036891223E-01  5.00000000000E-01

 NUMBER OF SYMMETRY OPERATORS         :   12
 *******************************************************************************
 * GEOMETRY EDITING - INPUT COORDINATES ARE GIVEN IN ANGSTROM         
 *******************************************************************************

 GEOMETRY NOW FULLY CONSISTENT WITH THE GROUP
 INFORMATION **** NEW DEFAULT **** FINALRUN 4 FOR GEOMETRY OPTIMIZATIONS
 INFORMATION **** NEW DEFAULT **** OPTGEOM OPTIMIZES BOTH ATOMIC COORDINATES AND CELL PARAMETERS
 INFORMATION **** NEW DEFAULT **** TOL. ON ENERGY TO REDEFINE REF. GEOMETRY: 10**-3
 INFORMATION **** FULLOPTG **** FULL OPTIMIZATION (ATOMS AND CELL PARAMETERS)

 IMPORTANT INFORMATION:
 THE COORDINATE SYSTEM ADOPTED IN THE OPTIMIZATION IS NOT IN
 GENERAL HOMOGENEOUS UNITS. FOR THIS REASON THE GRADIENT AND 
 HESSIAN MATRIX IN TERMS OF THIS SYSTEM ARE GIVEN WITHOUT
 UNITS. FOR MORE DETAILS SEE THE MANUAL.

 *******************************************************************************
 COMBINED CELL/ATOM OPTIMIZATION CONTROL

 INITIAL TRUST RADIUS         0.50000 MAXIMUM TRUST RADIUS               4.00000
 MAXIMUM GRADIENT COMPONENT   0.00045 MAXIMUM DISPLACEMENT COMPONENT     0.00180
 R.M.S. OF GRADIENT COMPONENT 0.00030 R.M.S. OF DISPLACEMENT COMPONENTS  0.00120
 THRESHOLD ON ENERGY CHANGE 0.100E-06 EXTRAPOLATING POLYNOMIAL ORDER           2
 MAXIMUM ALLOWED NUMBER OF STEPS  100 SORTING OF ENERGY POINTS:               NO
 ANALYTICAL  GRADIENT                 HESSIAN UPDATING                      BFGS
 STEP SIZE NUMERICAL GRADIENT 0.00100
 INITIAL HESSIAN MATRIX: SCHLEGEL MODEL 2
 *******************************************************************************


 GCALCO - MAX INDICES DIRECT LATTICE VECTOR    16    16    12
 NO.OF VECTORS CREATED 6999 STARS  380 RMAX   109.75576 BOHR

 GEOMETRY FOR WAVE FUNCTION - DIMENSIONALITY OF THE SYSTEM    3
 (NON PERIODIC DIRECTION: LATTICE PARAMETER FORMALLY SET TO 500)
 *******************************************************************************
 LATTICE PARAMETERS (ANGSTROMS AND DEGREES) - BOHR = 0.5291772083 ANGSTROM
 PRIMITIVE CELL - CENTRING CODE 1/0 VOLUME=   118.611068 - DENSITY  2.519 g/cm^3
         A              B              C           ALPHA      BETA       GAMMA 
     4.99363342     4.99363342     5.49238876    90.000000  90.000000 120.000000
 *******************************************************************************
 ATOMS IN THE ASYMMETRIC UNIT    2 - ATOMS IN THE UNIT CELL:    9
     ATOM              X/A                 Y/B                 Z/C    
 *******************************************************************************
   1 T  14 SI   -5.000000000000E-01 -5.000000000000E-01  3.333333333333E-01
   2 F  14 SI   -5.000000000000E-01 -5.551115123126E-17 -1.110223024625E-16
   3 F  14 SI    5.134438259410E-17 -5.000000000000E-01 -3.333333333333E-01
   4 T   8 O     2.095184456115E-01 -2.095184456115E-01 -1.666666666667E-01
   5 F   8 O    -2.095184456115E-01  2.095184456115E-01 -1.666666666667E-01
   6 F   8 O     2.095184456115E-01  4.190368912230E-01  5.000000000000E-01
   7 F   8 O    -4.190368912230E-01 -2.095184456115E-01  1.666666666667E-01
   8 F   8 O     4.190368912230E-01  2.095184456115E-01  1.666666666667E-01
   9 F   8 O    -2.095184456115E-01 -4.190368912230E-01  5.000000000000E-01

 T = ATOM BELONGING TO THE ASYMMETRIC UNIT

 ****   12 SYMMOPS - TRANSLATORS IN FRACTIONAL UNITS
 **** MATRICES AND TRANSLATORS IN THE CRYSTALLOGRAPHIC REFERENCE FRAME
   V INV                    ROTATION MATRICES                   TRANSLATORS
   1   1  1.00  0.00  0.00  0.00  1.00  0.00  0.00  0.00  1.00  0.00  0.00  0.00
   2   2 -1.00  0.00  0.00  0.00 -1.00  0.00  0.00  0.00  1.00  0.00  0.00  0.00
   3   4  0.00 -1.00  0.00  1.00 -1.00  0.00  0.00  0.00  1.00  0.00  0.00  0.67
   4   3 -1.00  1.00  0.00 -1.00  0.00  0.00  0.00  0.00  1.00  0.00  0.00  0.33
   5   6  1.00 -1.00  0.00  1.00  0.00  0.00  0.00  0.00  1.00  0.00  0.00  0.33
   6   5  0.00  1.00  0.00 -1.00  1.00  0.00  0.00  0.00  1.00  0.00  0.00  0.67
   7   7  1.00 -1.00  0.00 -0.00 -1.00  0.00  0.00  0.00 -1.00  0.00  0.00  0.00
   8   8 -1.00  0.00  0.00 -1.00  1.00  0.00  0.00  0.00 -1.00  0.00  0.00  0.33
   9   9  0.00  1.00  0.00  1.00  0.00  0.00  0.00  0.00 -1.00  0.00  0.00  0.67
  10  10  0.00 -1.00  0.00 -1.00  0.00  0.00  0.00  0.00 -1.00  0.00  0.00  0.67
  11  11  1.00  0.00  0.00  1.00 -1.00  0.00  0.00  0.00 -1.00  0.00  0.00  0.33
  12  12 -1.00  1.00  0.00  0.00  1.00  0.00  0.00  0.00 -1.00  0.00  0.00  0.00

 DIRECT LATTICE VECTORS CARTESIAN COMPONENTS (ANGSTROM)
          X                    Y                    Z
   0.432461339891E+01  -0.249681671000E+01   0.000000000000E+00
   0.000000000000E+00   0.499363342000E+01   0.000000000000E+00
   0.000000000000E+00   0.000000000000E+00   0.549238876000E+01


 CARTESIAN COORDINATES - PRIMITIVE CELL
 *******************************************************************************
 *      ATOM          X(ANGSTROM)         Y(ANGSTROM)         Z(ANGSTROM)
 *******************************************************************************
    1    14 SI    2.162306699453E+00  1.248408355000E+00  1.830796253333E+00
    2    14 SI    2.162306699453E+00 -1.248408355000E+00 -6.097776461544E-16
    3    14 SI    2.220446049250E-16  2.496816710000E+00 -1.830796253333E+00
    4     8 O     9.060862772097E-01 -1.569387468168E+00 -9.153981266667E-01
    5     8 O    -9.060862772097E-01  1.569387468168E+00 -9.153981266667E-01
    6     8 O     9.060862772097E-01  1.569387468168E+00  2.746194380000E+00
    7     8 O    -1.812172554419E+00 -3.525028324569E-16  9.153981266667E-01
    8     8 O     1.812172554419E+00  3.525028324569E-16  9.153981266667E-01
    9     8 O    -9.060862772097E-01 -1.569387468168E+00  2.746194380000E+00

 *******************************************************************************
 LOCAL ATOMIC FUNCTIONS BASIS SET
 *******************************************************************************
   ATOM   X(AU)   Y(AU)   Z(AU)  N. TYPE  EXPONENT  S COEF   P COEF   D/F/G COEF
 *******************************************************************************
   1 SI   4.086   2.359   3.460
                                  1 S  
                                         1.612E+04 1.959E-03 0.000E+00 0.000E+00
                                         2.426E+03 1.493E-02 0.000E+00 0.000E+00
                                         5.539E+02 7.285E-02 0.000E+00 0.000E+00
                                         1.563E+02 2.461E-01 0.000E+00 0.000E+00
                                         5.007E+01 4.859E-01 0.000E+00 0.000E+00
                                         1.702E+01 3.250E-01 0.000E+00 0.000E+00
                             2-   5 SP 
                                         2.927E+02-2.781E-03 4.438E-03 0.000E+00
                                         6.987E+01-3.571E-02 3.267E-02 0.000E+00
                                         2.234E+01-1.150E-01 1.347E-01 0.000E+00
                                         8.150E+00 9.356E-02 3.287E-01 0.000E+00
                                         3.135E+00 6.030E-01 4.496E-01 0.000E+00
                                         1.225E+00 4.190E-01 2.614E-01 0.000E+00
                             6-   9 SP 
                                         1.079E+00-3.761E-01 6.710E-02 0.000E+00
                                         3.024E-01 1.252E+00 9.569E-01 0.000E+00
                            10-  13 SP 
                                         1.300E-01 1.000E+00 1.000E+00 0.000E+00
                            14-  18 D  
                                         5.000E-01 0.000E+00 0.000E+00 1.000E+00
   2 SI   4.086  -2.359  -0.000
   3 SI   0.000   4.718  -3.460
   4 O    1.712  -2.966  -1.730
                                 55 S  
                                         5.485E+03 1.831E-03 0.000E+00 0.000E+00
                                         8.252E+02 1.395E-02 0.000E+00 0.000E+00
                                         1.880E+02 6.845E-02 0.000E+00 0.000E+00
                                         5.296E+01 2.327E-01 0.000E+00 0.000E+00
                                         1.690E+01 4.702E-01 0.000E+00 0.000E+00
                                         5.800E+00 3.585E-01 0.000E+00 0.000E+00
                            56-  59 SP 
                                         1.554E+01-1.108E-01 7.087E-02 0.000E+00
                                         3.600E+00-1.480E-01 3.398E-01 0.000E+00
                                         1.014E+00 1.131E+00 7.272E-01 0.000E+00
                            60-  63 SP 
                                         2.742E-01 1.000E+00 1.000E+00 0.000E+00
                            64-  68 D  
                                         6.000E-01 0.000E+00 0.000E+00 1.000E+00
   5 O   -1.712   2.966  -1.730
   6 O    1.712   2.966   5.190
   7 O   -3.425  -0.000   1.730
   8 O    3.425   0.000   1.730
   9 O   -1.712  -2.966   5.190
 INFORMATION **** SET_MPP **** PCRYSTAL CALCULATION
 INFORMATION **** READM2 **** NEW DEFAULT: FOCK/KS MATRIX MIXING SET TO 30 %
 INFORMATION **** READM2 **** NEW DEFAULT: FULL DIRECT SCF MODE
 INFORMATION **** READM2 **** NEW DEFAULT: COULOMB BIPOLAR BUFFER SET TO 32 Mb
 INFORMATION **** READM2 **** NEW DEFAULT: EXCHANGE BIPOLAR BUFFER SET TO 32 Mb

 *******************************************************************************
 NEW DEFAULT: DFT INTEGRATION GRID INCREASED TO XLGRID
 NEW DEFAULT: LEVEL SHIFTER 6 0
 IF THE SYSTEM IS A METAL USE KEYWORD NOSHIFT
 *******************************************************************************

 INFORMATION **** LEVSHIFT **** LEVEL SHIFTER ACTIVE
 INFORMATION **** READM2 **** FULL DIRECT SCF (MONO AND BIEL INT) SELECTED
 INFORMATION **** TOLDEE **** SCF TOL ON TOTAL ENERGY SET TO           7
 *******************************************************************************
 N. OF ATOMS PER CELL         9  COULOMB OVERLAP TOL         (T1) 10**   -6
 NUMBER OF SHELLS            39  COULOMB PENETRATION TOL     (T2) 10**   -6
 NUMBER OF AO               138  EXCHANGE OVERLAP TOL        (T3) 10**   20
 N. OF ELECTRONS PER CELL    90  EXCHANGE PSEUDO OVP (F(G))  (T4) 10**   20
 CORE ELECTRONS PER CELL     42  EXCHANGE PSEUDO OVP (P(G))  (T5) 10**   20
 N. OF SYMMETRY OPERATORS    12  POLE ORDER IN MONO ZONE                  4
 *******************************************************************************
 TYPE OF CALCULATION :  RESTRICTED CLOSED SHELL
 KOHN-SHAM HAMILTONIAN

 (EXCHANGE)[CORRELATION] FUNCTIONAL:(PBEsol GGA)[PBEsol]

 EIGENVALUE LEVEL SHIFTING OF  0.600 HARTREE

 CAPPA:IS1  3;IS2  3;IS3  3; K PTS MONK NET   6; SYMMOPS:K SPACE  24;G SPACE  12

 *******************************************************************************
 MAX NUMBER OF SCF CYCLES      50  CONVERGENCE ON DELTAP        10**-17
 WEIGHT OF F(I) IN F(I+1)      20% CONVERGENCE ON ENERGY        10**- 7
 EIGENVALUE LEVEL SHIFTING OF  0.600 HARTREE
 SHRINK. FACT.(MONKH.)    3  3  3  NUMBER OF K POINTS IN THE IBZ      6
 SHRINKING FACTOR(GILAT NET)    3  NUMBER OF K POINTS(GILAT NET)      6
 *******************************************************************************
 *** K POINTS COORDINATES (OBLIQUE COORDINATES IN UNITS OF IS =  3)
   1-R(  0  0  0)   2-C(  1  0  0)   3-C(  1  1  0)   4-C(  0  0  1)
   5-C(  1  0  1)   6-C(  1  1  1)

 DIRECT LATTICE VECTORS COMPON. (A.U.)     RECIP. LATTICE VECTORS COMPON. (A.U.) 
        X            Y            Z              X            Y            Z
    8.1723350   -4.7182998    0.0000000      0.7688360    0.0000000    0.0000000
    0.0000000    9.4365996    0.0000000      0.3844180    0.6658315    0.0000000
    0.0000000    0.0000000   10.3791106      0.0000000    0.0000000    0.6053684

 DISK SPACE FOR EIGENVECTORS (FTN 10)      209484 REALS

 SYMMETRY ADAPTION OF THE BLOCH FUNCTIONS ENABLED
 TTTTTTTTTTTTTTTTTTTTTTTTTTTTTT gordsh1     TELAPSE        1.03 TCPU        0.01

 MATRIX SIZE: P(G)   58860, F(G)   29727, P(G) IRR    3159, F(G) IRR    3159
 MAX G-VECTOR INDEX FOR 1- AND 2-ELECTRON INTEGRALS  71

 TTTTTTTTTTTTTTTTTTTTTTTTTTTTTT INPUT       TELAPSE        1.03 TCPU        0.02

 NEIGHBORS OF THE NON-EQUIVALENT ATOMS

 N = NUMBER OF NEIGHBORS AT DISTANCE R
    ATOM  N     R/ANG      R/AU   NEIGHBORS (ATOM LABELS AND CELL INDICES)
   1 SI   4     1.5872     2.9993    6 O    0 0 0    7 O    1 1 0    8 O    0 0 0
                                     9 O    1 1 0
   1 SI   4     3.0961     5.8508    2 SI   0 0 0    2 SI   0 1 0    3 SI   1 0 1
                                     3 SI   0 0 1
   1 SI   4     3.7221     7.0337    4 O    0 1 0    4 O    0 1 1    5 O    1 0 0
                                     5 O    1 0 1
   1 SI   4     3.8713     7.3158    6 O    1 0 0    7 O    1 0 0    8 O    0 1 0
                                     9 O    0 1 0
   1 SI   8     4.1303     7.8052    4 O    0 0 0    4 O    1 1 0    4 O    0 0 1
                                     4 O    1 1 1    5 O    1 1 0    5 O    0 0 0
                                     5 O    1 1 1    5 O    0 0 1
   1 SI   4     4.2653     8.0603    6 O    1 1 0    7 O    0 0 0    8 O    1 1 0
                                     9 O    0 0 0

   4 O    2     1.5872     2.9993    2 SI   0 0 0    3 SI   0-1 0
   4 O    2     2.5760     4.8679    8 O    0 0 0    9 O    0 0-1
   4 O    2     2.5932     4.9004    5 O    1 0 0    5 O    0-1 0
   4 O    2     2.6062     4.9250    6 O    0-1-1    7 O    1 0 0
   4 O    1     3.6243     6.8490    5 O    0 0 0
   4 O    2     3.6337     6.8667    6 O    0 0-1    7 O    0 0 0


 SYMMETRY ALLOWED ELASTIC DISTORTION 1
  0.5773503  0.0000000  0.0000000
  0.0000000  0.5773503  0.0000000
  0.0000000  0.0000000  0.5773503

 SYMMETRY ALLOWED ELASTIC DISTORTION 2
  0.4082483  0.0000000  0.0000000
  0.0000000  0.4082483  0.0000000
  0.0000000  0.0000000 -0.8164966

 SYMMETRY ALLOWED INTERNAL DEGREE(S) OF FREEDOM:   1
 TTTTTTTTTTTTTTTTTTTTTTTTTTTTTT SYMM        TELAPSE        1.04 TCPU        0.02
 TTTTTTTTTTTTTTTTTTTTTTTTTTTTTT INT_SCREEN  TELAPSE        1.04 TCPU        0.02
 *******************************************************************************
 COORDINATE AND CELL OPTIMIZATION - POINT    1
 INFORMATION **** EXCBUF **** EXCH. BIPO BUFFER: WORDS USED =           0

 DFT PARAMETERS

     ATOM       ELECTRONS   NET CHARGE   R(ANGSTROM)
   1  14  SI     14.0000      0.0000     1.17000000
   4   8  O       8.0000      0.0000     0.74000000

 SIZE OF GRID=      45251
 TTTTTTTTTTTTTTTTTTTTTTTTTTTTTT MAKE_GRID2  TELAPSE        3.46 TCPU        2.44
 BECKE WEIGHT FUNCTION
 RADSAFE =     2.00
 TOLERANCES - DENSITY:10**- 6; POTENTIAL:10**- 9; GRID WGT:10**-14

 RADIAL INTEGRATION  - INTERVALS (POINTS,UPPER LIMIT):            1( 75,  4.0*R)

 ANGULAR INTEGRATION - INTERVALS (ACCURACY LEVEL [N. POINTS] UPPER LIMIT):
  1(  4[  86]   0.2)  2(  8[ 194]   0.5)  3( 12[ 350]   0.9)  4( 16[ 974]   3.5)
  5( 12[ 350]9999.0)
 TTTTTTTTTTTTTTTTTTTTTTTTTTTTTT INT_CALC    TELAPSE        3.50 TCPU        2.48

 *******************************************************************************
 QUARTZ BETA                                                                     
 CRYSTAL - SCF - TYPE OF CALCULATION :  RESTRICTED CLOSED SHELL
 *******************************************************************************

 CAPPA:IS1  3;IS2  3;IS3  3; K PTS MONK NET   6; SYMMOPS:K SPACE  24;G SPACE  12

 TTTTTTTTTTTTTTTTTTTTTTTTTTTTTT SDIK        TELAPSE        3.51 TCPU        2.48

 AAAAAAAAAAAAAAAAAAAAAAAAAAAAAAAAAAAAAAAAAAAAAAAAAAAAAAAAAAAAAAAAAAAAAAAAAAAAAAA
         ATOMIC WAVEFUNCTION(S)


 NUCLEAR CHARGE 14.0  SYMMETRY SPECIES            S    P
 N. ELECTRONS   14.0  NUMBER OF PRIMITIVE GTOS   15    9
                      NUMBER OF CONTRACTED GTOS   4    3
                      NUMBER OF CLOSED SHELLS     3    1
                      OPEN SHELL OCCUPATION       0    2

  ZNUC SCFIT  TOTAL HF ENERGY   KINETIC ENERGY   VIRIAL THEOREM ACCURACY
  14.0  10   -2.888073230E+02  2.889016516E+02 -1.999673492E+00  1.9E-06

 NUCLEAR CHARGE  8.0  SYMMETRY SPECIES            S    P
 N. ELECTRONS    8.0  NUMBER OF PRIMITIVE GTOS   10    4
                      NUMBER OF CONTRACTED GTOS   3    2
                      NUMBER OF CLOSED SHELLS     2    0
                      OPEN SHELL OCCUPATION       0    4

  ZNUC SCFIT  TOTAL HF ENERGY   KINETIC ENERGY   VIRIAL THEOREM ACCURACY
   8.0  12   -7.477715677E+01  7.467571879E+01 -2.001358380E+00  3.0E-06

 AAAAAAAAAAAAAAAAAAAAAAAAAAAAAAAAAAAAAAAAAAAAAAAAAAAAAAAAAAAAAAAAAAAAAAAAAAAAAAA

 CHARGE NORMALIZATION FACTOR   1.00000000
 TOTAL ATOMIC CHARGES:
  14.0000000  14.0000000  14.0000000   8.0000000   8.0000000   8.0000000
   8.0000000   8.0000000   8.0000000
 TTTTTTTTTTTTTTTTTTTTTTTTTTTTTT MOQGAD      TELAPSE        3.52 TCPU        2.50
 TTTTTTTTTTTTTTTTTTTTTTTTTTTTTT SHELLX2     TELAPSE        3.76 TCPU        2.74
 TTTTTTTTTTTTTTTTTTTTTTTTTTTTTT MONMO3      TELAPSE        3.78 TCPU        2.76
 NUMERICALLY INTEGRATED DENSITY     89.9999472285
 TTTTTTTTTTTTTTTTTTTTTTTTTTTTTT NUMDFT      TELAPSE        4.35 TCPU        3.33
 CYC   0 ETOT(AU) -1.318955361471E+03 DETOT -1.32E+03 tst  0.00E+00 PX  1.00E+00
 TTTTTTTTTTTTTTTTTTTTTTTTTTTTTT FDIK        TELAPSE        4.44 TCPU        3.42
 INSULATING STATE
 TOP OF VALENCE BANDS -    BAND     45; K    4; EIG -3.8018718E-01 AU
 TOP OF VALENCE BANDS -    BAND     45; K    1; EIG -3.8568896E-01 AU
 BOTTOM OF VIRTUAL BANDS - BAND     46; K    1; EIG -8.9440769E-02 AU
 TTTTTTTTTTTTTTTTTTTTTTTTTTTTTT PDIG        TELAPSE        4.45 TCPU        3.43
 CHARGE NORMALIZATION FACTOR   1.00000000
 TOTAL ATOMIC CHARGES:
  12.1573579  12.1573579  12.1573579   8.9213210   8.9213210   8.9213210
   8.9213210   8.9213210   8.9213210
 TTTTTTTTTTTTTTTTTTTTTTTTTTTTTT MOQGAD      TELAPSE        4.46 TCPU        3.44
 TTTTTTTTTTTTTTTTTTTTTTTTTTTTTT SHELLX2     TELAPSE        4.74 TCPU        3.71
 TTTTTTTTTTTTTTTTTTTTTTTTTTTTTT MONMO3      TELAPSE        4.75 TCPU        3.73
 NUMERICALLY INTEGRATED DENSITY     89.9999737650
 TTTTTTTTTTTTTTTTTTTTTTTTTTTTTT NUMDFT      TELAPSE        5.95 TCPU        4.93
 CYC   1 ETOT(AU) -1.316115308337E+03 DETOT  2.84E+00 tst  0.00E+00 PX  1.00E+00
 TTTTTTTTTTTTTTTTTTTTTTTTTTTTTT FDIK        TELAPSE        6.00 TCPU        4.97
 INSULATING STATE
 TOP OF VALENCE BANDS -    BAND     45; K    4; EIG -1.2716509E-01 AU
 TOP OF VALENCE BANDS -    BAND     45; K    1; EIG -1.3552814E-01 AU
 BOTTOM OF VIRTUAL BANDS - BAND     46; K    1; EIG  3.6818184E-02 AU
 TTTTTTTTTTTTTTTTTTTTTTTTTTTTTT PDIG        TELAPSE        6.01 TCPU        4.98
 CHARGE NORMALIZATION FACTOR   1.00000000
 TOTAL ATOMIC CHARGES:
  12.7460568  12.7460568  12.7460568   8.6269716   8.6269716   8.6269716
   8.6269716   8.6269716   8.6269716
 TTTTTTTTTTTTTTTTTTTTTTTTTTTTTT MOQGAD      TELAPSE        6.02 TCPU        4.99
 TTTTTTTTTTTTTTTTTTTTTTTTTTTTTT SHELLX2     TELAPSE        6.29 TCPU        5.27
 TTTTTTTTTTTTTTTTTTTTTTTTTTTTTT MONMO3      TELAPSE        6.31 TCPU        5.28
 NUMERICALLY INTEGRATED DENSITY     89.9999651161
 TTTTTTTTTTTTTTTTTTTTTTTTTTTTTT NUMDFT      TELAPSE        7.49 TCPU        6.47
 CYC   2 ETOT(AU) -1.316427960258E+03 DETOT -3.13E-01 tst  1.49E-02 PX  1.58E-01
 TTTTTTTTTTTTTTTTTTTTTTTTTTTTTT FDIK        TELAPSE        7.54 TCPU        6.51
 INSULATING STATE
 TOP OF VALENCE BANDS -    BAND     45; K    4; EIG -2.3673049E-01 AU
 TOP OF VALENCE BANDS -    BAND     45; K    1; EIG -2.4355059E-01 AU
 BOTTOM OF VIRTUAL BANDS - BAND     46; K    1; EIG -1.7779573E-03 AU
 TTTTTTTTTTTTTTTTTTTTTTTTTTTTTT PDIG        TELAPSE        7.55 TCPU        6.52
 CHARGE NORMALIZATION FACTOR   1.00000000
 TOTAL ATOMIC CHARGES:
  12.7581789  12.7581789  12.7581789   8.6209105   8.6209105   8.6209105
   8.6209105   8.6209105   8.6209105
 TTTTTTTTTTTTTTTTTTTTTTTTTTTTTT MOQGAD      TELAPSE        7.55 TCPU        6.53
 TTTTTTTTTTTTTTTTTTTTTTTTTTTTTT SHELLX2     TELAPSE        7.83 TCPU        6.81
 TTTTTTTTTTTTTTTTTTTTTTTTTTTTTT MONMO3      TELAPSE        7.85 TCPU        6.82
 NUMERICALLY INTEGRATED DENSITY     89.9999650936
 TTTTTTTTTTTTTTTTTTTTTTTTTTTTTT NUMDFT      TELAPSE        9.05 TCPU        8.02
 CYC   3 ETOT(AU) -1.316458873479E+03 DETOT -3.09E-02 tst  4.97E-04 PX  4.29E-02
 TTTTTTTTTTTTTTTTTTTTTTTTTTTTTT FDIK        TELAPSE        9.08 TCPU        8.06
 INSULATING STATE
 TOP OF VALENCE BANDS -    BAND     45; K    4; EIG -2.2873880E-01 AU
 TOP OF VALENCE BANDS -    BAND     45; K    1; EIG -2.3565587E-01 AU
 BOTTOM OF VIRTUAL BANDS - BAND     46; K    1; EIG  6.9478764E-04 AU
 TTTTTTTTTTTTTTTTTTTTTTTTTTTTTT PDIG        TELAPSE        9.09 TCPU        8.07
 CHARGE NORMALIZATION FACTOR   1.00000000
 TOTAL ATOMIC CHARGES:
  12.7613623  12.7613623  12.7613623   8.6193189   8.6193189   8.6193189
   8.6193189   8.6193189   8.6193189
 TTTTTTTTTTTTTTTTTTTTTTTTTTTTTT MOQGAD      TELAPSE        9.10 TCPU        8.08
 TTTTTTTTTTTTTTTTTTTTTTTTTTTTTT SHELLX2     TELAPSE        9.38 TCPU        8.36
 TTTTTTTTTTTTTTTTTTTTTTTTTTTTTT MONMO3      TELAPSE        9.40 TCPU        8.37
 NUMERICALLY INTEGRATED DENSITY     89.9999647491
 TTTTTTTTTTTTTTTTTTTTTTTTTTTTTT NUMDFT      TELAPSE       10.57 TCPU        9.55
 CYC   4 ETOT(AU) -1.316459088160E+03 DETOT -2.15E-04 tst  2.07E-05 PX  4.14E-03
 TTTTTTTTTTTTTTTTTTTTTTTTTTTTTT FDIK        TELAPSE       10.61 TCPU        9.59
 INSULATING STATE
 TOP OF VALENCE BANDS -    BAND     45; K    4; EIG -2.2466742E-01 AU
 TOP OF VALENCE BANDS -    BAND     45; K    1; EIG -2.3165130E-01 AU
 BOTTOM OF VIRTUAL BANDS - BAND     46; K    1; EIG  1.8165930E-03 AU
 TTTTTTTTTTTTTTTTTTTTTTTTTTTTTT PDIG        TELAPSE       10.62 TCPU        9.60
 CHARGE NORMALIZATION FACTOR   1.00000000
 TOTAL ATOMIC CHARGES:
  12.7766549  12.7766549  12.7766549   8.6116726   8.6116726   8.6116726
   8.6116726   8.6116726   8.6116726
 TTTTTTTTTTTTTTTTTTTTTTTTTTTTTT MOQGAD      TELAPSE       10.63 TCPU        9.60
 TTTTTTTTTTTTTTTTTTTTTTTTTTTTTT SHELLX2     TELAPSE       10.91 TCPU        9.88
 TTTTTTTTTTTTTTTTTTTTTTTTTTTTTT MONMO3      TELAPSE       10.92 TCPU        9.90
 NUMERICALLY INTEGRATED DENSITY     89.9999643302
 TTTTTTTTTTTTTTTTTTTTTTTTTTTTTT NUMDFT      TELAPSE       12.11 TCPU       11.08
 CYC   5 ETOT(AU) -1.316459258459E+03 DETOT -1.70E-04 tst  2.26E-05 PX  3.94E-03
 TTTTTTTTTTTTTTTTTTTTTTTTTTTTTT FDIK        TELAPSE       12.15 TCPU       11.12
 INSULATING STATE
 TOP OF VALENCE BANDS -    BAND     45; K    4; EIG -2.2716443E-01 AU
 TOP OF VALENCE BANDS -    BAND     45; K    1; EIG -2.3411465E-01 AU
 BOTTOM OF VIRTUAL BANDS - BAND     46; K    1; EIG  5.0225161E-04 AU
 TTTTTTTTTTTTTTTTTTTTTTTTTTTTTT PDIG        TELAPSE       12.16 TCPU       11.13
 CHARGE NORMALIZATION FACTOR   1.00000000
 TOTAL ATOMIC CHARGES:
  12.7798831  12.7798831  12.7798831   8.6100585   8.6100585   8.6100585
   8.6100585   8.6100585   8.6100585
 TTTTTTTTTTTTTTTTTTTTTTTTTTTTTT MOQGAD      TELAPSE       12.17 TCPU       11.14
 TTTTTTTTTTTTTTTTTTTTTTTTTTTTTT SHELLX2     TELAPSE       12.45 TCPU       11.42
 TTTTTTTTTTTTTTTTTTTTTTTTTTTTTT MONMO3      TELAPSE       12.46 TCPU       11.44
 NUMERICALLY INTEGRATED DENSITY     89.9999641876
 TTTTTTTTTTTTTTTTTTTTTTTTTTTTTT NUMDFT      TELAPSE       13.67 TCPU       12.64
 CYC   6 ETOT(AU) -1.316459285634E+03 DETOT -2.72E-05 tst  4.65E-06 PX  8.82E-04
 TTTTTTTTTTTTTTTTTTTTTTTTTTTTTT FDIK        TELAPSE       13.70 TCPU       12.68
 INSULATING STATE
 TOP OF VALENCE BANDS -    BAND     45; K    4; EIG -2.2748896E-01 AU
 TOP OF VALENCE BANDS -    BAND     45; K    1; EIG -2.3443672E-01 AU
 BOTTOM OF VIRTUAL BANDS - BAND     46; K    1; EIG  1.8786659E-04 AU
 TTTTTTTTTTTTTTTTTTTTTTTTTTTTTT PDIG        TELAPSE       13.71 TCPU       12.68
 CHARGE NORMALIZATION FACTOR   1.00000000
 TOTAL ATOMIC CHARGES:
  12.7811492  12.7811492  12.7811492   8.6094254   8.6094254   8.6094254
   8.6094254   8.6094254   8.6094254
 TTTTTTTTTTTTTTTTTTTTTTTTTTTTTT MOQGAD      TELAPSE       13.72 TCPU       12.70
 TTTTTTTTTTTTTTTTTTTTTTTTTTTTTT SHELLX2     TELAPSE       14.00 TCPU       12.97
 TTTTTTTTTTTTTTTTTTTTTTTTTTTTTT MONMO3      TELAPSE       14.02 TCPU       12.99
 NUMERICALLY INTEGRATED DENSITY     89.9999641119
 TTTTTTTTTTTTTTTTTTTTTTTTTTTTTT NUMDFT      TELAPSE       15.19 TCPU       14.16
 CYC   7 ETOT(AU) -1.316459289822E+03 DETOT -4.19E-06 tst  1.86E-06 PX  4.75E-04
 TTTTTTTTTTTTTTTTTTTTTTTTTTTTTT FDIK        TELAPSE       15.22 TCPU       14.19
 INSULATING STATE
 TOP OF VALENCE BANDS -    BAND     45; K    4; EIG -2.2756410E-01 AU
 TOP OF VALENCE BANDS -    BAND     45; K    1; EIG -2.3451195E-01 AU
 BOTTOM OF VIRTUAL BANDS - BAND     46; K    1; EIG  6.5108328E-05 AU
 TTTTTTTTTTTTTTTTTTTTTTTTTTTTTT PDIG        TELAPSE       15.23 TCPU       14.20
 CHARGE NORMALIZATION FACTOR   1.00000000
 TOTAL ATOMIC CHARGES:
  12.7820742  12.7820742  12.7820742   8.6089629   8.6089629   8.6089629
   8.6089629   8.6089629   8.6089629
 TTTTTTTTTTTTTTTTTTTTTTTTTTTTTT MOQGAD      TELAPSE       15.24 TCPU       14.21
 TTTTTTTTTTTTTTTTTTTTTTTTTTTTTT SHELLX2     TELAPSE       15.52 TCPU       14.49
 TTTTTTTTTTTTTTTTTTTTTTTTTTTTTT MONMO3      TELAPSE       15.53 TCPU       14.50
 NUMERICALLY INTEGRATED DENSITY     89.9999640661
 TTTTTTTTTTTTTTTTTTTTTTTTTTTTTT NUMDFT      TELAPSE       16.74 TCPU       15.71
 CYC   8 ETOT(AU) -1.316459289649E+03 DETOT  1.73E-07 tst  7.88E-07 PX  3.40E-04
 TTTTTTTTTTTTTTTTTTTTTTTTTTTTTT FDIK        TELAPSE       16.77 TCPU       15.74
 INSULATING STATE
 TOP OF VALENCE BANDS -    BAND     45; K    4; EIG -2.2768893E-01 AU
 TOP OF VALENCE BANDS -    BAND     45; K    1; EIG -2.3463547E-01 AU
 BOTTOM OF VIRTUAL BANDS - BAND     46; K    1; EIG -3.3710737E-05 AU
 TTTTTTTTTTTTTTTTTTTTTTTTTTTTTT PDIG        TELAPSE       16.78 TCPU       15.75
 CHARGE NORMALIZATION FACTOR   1.00000000
 TOTAL ATOMIC CHARGES:
  12.7824725  12.7824725  12.7824725   8.6087638   8.6087638   8.6087638
   8.6087638   8.6087638   8.6087638
 TTTTTTTTTTTTTTTTTTTTTTTTTTTTTT MOQGAD      TELAPSE       16.79 TCPU       15.76
 TTTTTTTTTTTTTTTTTTTTTTTTTTTTTT SHELLX2     TELAPSE       17.07 TCPU       16.04
 TTTTTTTTTTTTTTTTTTTTTTTTTTTTTT MONMO3      TELAPSE       17.08 TCPU       16.06
 NUMERICALLY INTEGRATED DENSITY     89.9999640422
 TTTTTTTTTTTTTTTTTTTTTTTTTTTTTT NUMDFT      TELAPSE       18.27 TCPU       17.24
 CYC   9 ETOT(AU) -1.316459289348E+03 DETOT  3.01E-07 tst  3.04E-07 PX  1.52E-04
 TTTTTTTTTTTTTTTTTTTTTTTTTTTTTT FDIK        TELAPSE       18.30 TCPU       17.27
 INSULATING STATE
 TOP OF VALENCE BANDS -    BAND     45; K    4; EIG -2.2774279E-01 AU
 TOP OF VALENCE BANDS -    BAND     45; K    1; EIG -2.3468885E-01 AU
 BOTTOM OF VIRTUAL BANDS - BAND     46; K    1; EIG -8.2047794E-05 AU
 TTTTTTTTTTTTTTTTTTTTTTTTTTTTTT PDIG        TELAPSE       18.31 TCPU       17.28
 CHARGE NORMALIZATION FACTOR   1.00000000
 TOTAL ATOMIC CHARGES:
  12.7826734  12.7826734  12.7826734   8.6086633   8.6086633   8.6086633
   8.6086633   8.6086633   8.6086633
 TTTTTTTTTTTTTTTTTTTTTTTTTTTTTT MOQGAD      TELAPSE       18.32 TCPU       17.29
 TTTTTTTTTTTTTTTTTTTTTTTTTTTTTT SHELLX2     TELAPSE       18.60 TCPU       17.57
 TTTTTTTTTTTTTTTTTTTTTTTTTTTTTT MONMO3      TELAPSE       18.62 TCPU       17.59
 NUMERICALLY INTEGRATED DENSITY     89.9999640291
 TTTTTTTTTTTTTTTTTTTTTTTTTTTTTT NUMDFT      TELAPSE       19.80 TCPU       18.77
 CYC  10 ETOT(AU) -1.316459289060E+03 DETOT  2.88E-07 tst  1.21E-07 PX  8.77E-05
 TTTTTTTTTTTTTTTTTTTTTTTTTTTTTT FDIK        TELAPSE       19.83 TCPU       18.80
 INSULATING STATE
 TOP OF VALENCE BANDS -    BAND     45; K    4; EIG -2.2776923E-01 AU
 TOP OF VALENCE BANDS -    BAND     45; K    1; EIG -2.3471507E-01 AU
 BOTTOM OF VIRTUAL BANDS - BAND     46; K    1; EIG -1.0715198E-04 AU
 TTTTTTTTTTTTTTTTTTTTTTTTTTTTTT PDIG        TELAPSE       19.84 TCPU       18.81
 CHARGE NORMALIZATION FACTOR   1.00000000
 TOTAL ATOMIC CHARGES:
  12.7827837  12.7827837  12.7827837   8.6086082   8.6086082   8.6086082
   8.6086082   8.6086082   8.6086082
 TTTTTTTTTTTTTTTTTTTTTTTTTTTTTT MOQGAD      TELAPSE       19.85 TCPU       18.82
 TTTTTTTTTTTTTTTTTTTTTTTTTTTTTT SHELLX2     TELAPSE       20.13 TCPU       19.10
 TTTTTTTTTTTTTTTTTTTTTTTTTTTTTT MONMO3      TELAPSE       20.15 TCPU       19.11
 NUMERICALLY INTEGRATED DENSITY     89.9999640217
 TTTTTTTTTTTTTTTTTTTTTTTTTTTTTT NUMDFT      TELAPSE       21.33 TCPU       20.30
 CYC  11 ETOT(AU) -1.316459288857E+03 DETOT  2.03E-07 tst  4.84E-08 PX  5.12E-05
 TTTTTTTTTTTTTTTTTTTTTTTTTTTTTT FDIK        TELAPSE       21.36 TCPU       20.33
 INSULATING STATE
 TOP OF VALENCE BANDS -    BAND     45; K    4; EIG -2.2778523E-01 AU
 TOP OF VALENCE BANDS -    BAND     45; K    1; EIG -2.3473094E-01 AU
 BOTTOM OF VIRTUAL BANDS - BAND     46; K    1; EIG -1.2154295E-04 AU
 TTTTTTTTTTTTTTTTTTTTTTTTTTTTTT PDIG        TELAPSE       21.37 TCPU       20.34
 CHARGE NORMALIZATION FACTOR   1.00000000
 TOTAL ATOMIC CHARGES:
  12.7828432  12.7828432  12.7828432   8.6085784   8.6085784   8.6085784
   8.6085784   8.6085784   8.6085784
 TTTTTTTTTTTTTTTTTTTTTTTTTTTTTT MOQGAD      TELAPSE       21.38 TCPU       20.35
 TTTTTTTTTTTTTTTTTTTTTTTTTTTTTT SHELLX2     TELAPSE       21.66 TCPU       20.63
 TTTTTTTTTTTTTTTTTTTTTTTTTTTTTT MONMO3      TELAPSE       21.68 TCPU       20.65
 NUMERICALLY INTEGRATED DENSITY     89.9999640176
 TTTTTTTTTTTTTTTTTTTTTTTTTTTTTT NUMDFT      TELAPSE       22.90 TCPU       21.87
 CYC  12 ETOT(AU) -1.316459288744E+03 DETOT  1.14E-07 tst  1.93E-08 PX  2.78E-05
 TTTTTTTTTTTTTTTTTTTTTTTTTTTTTT FDIK        TELAPSE       22.93 TCPU       21.90
 INSULATING STATE
 TOP OF VALENCE BANDS -    BAND     45; K    4; EIG -2.2779387E-01 AU
 TOP OF VALENCE BANDS -    BAND     45; K    1; EIG -2.3473951E-01 AU
 BOTTOM OF VIRTUAL BANDS - BAND     46; K    1; EIG -1.2940447E-04 AU
 TTTTTTTTTTTTTTTTTTTTTTTTTTTTTT PDIG        TELAPSE       22.94 TCPU       21.91
 CHARGE NORMALIZATION FACTOR   1.00000000
 TOTAL ATOMIC CHARGES:
  12.7828765  12.7828765  12.7828765   8.6085617   8.6085617   8.6085617
   8.6085617   8.6085617   8.6085617
 TTTTTTTTTTTTTTTTTTTTTTTTTTTTTT MOQGAD      TELAPSE       22.95 TCPU       21.92
 TTTTTTTTTTTTTTTTTTTTTTTTTTTTTT SHELLX2     TELAPSE       23.23 TCPU       22.19
 TTTTTTTTTTTTTTTTTTTTTTTTTTTTTT MONMO3      TELAPSE       23.24 TCPU       22.21
 NUMERICALLY INTEGRATED DENSITY     89.9999640153
 TTTTTTTTTTTTTTTTTTTTTTTTTTTTTT NUMDFT      TELAPSE       24.45 TCPU       23.41
 CYC  13 ETOT(AU) -1.316459288679E+03 DETOT  6.49E-08 tst  7.73E-09 PX  1.50E-05
 TTTTTTTTTTTTTTTTTTTTTTTTTTTTTT FDIK        TELAPSE       24.48 TCPU       23.44
 INSULATING STATE
 TOP OF VALENCE BANDS -    BAND     45; K    4; EIG -2.2779857E-01 AU
 TOP OF VALENCE BANDS -    BAND     45; K    1; EIG -2.3474416E-01 AU
 BOTTOM OF VIRTUAL BANDS - BAND     46; K    1; EIG -1.3376059E-04 AU
 TTTTTTTTTTTTTTTTTTTTTTTTTTTTTT PDIG        TELAPSE       24.49 TCPU       23.45
 CHARGE NORMALIZATION FACTOR   1.00000000
 TOTAL ATOMIC CHARGES:
  12.7828941  12.7828941  12.7828941   8.6085529   8.6085529   8.6085529
   8.6085529   8.6085529   8.6085529
 TTTTTTTTTTTTTTTTTTTTTTTTTTTTTT MOQGAD      TELAPSE       24.50 TCPU       23.46
 TTTTTTTTTTTTTTTTTTTTTTTTTTTTTT SHELLX2     TELAPSE       24.77 TCPU       23.74
 +++ ENERGIES IN A.U. +++
 ::: EXT EL-POLE                                  -1.2462267775177E+03
 ::: EXT EL-SPHEROPOLE                             1.5217940323069E+01
 ::: BIELET ZONE E-E                               1.6632319338708E+03
 ::: TOTAL E-E                                     4.3222309667620E+02
 ::: TOTAL E-N + N-E                              -2.7364009967628E+03
 ::: TOTAL N-N                                    -2.1575780199742E+02
 ::: KINETIC ENERGY                                1.3147342438018E+03
 ::: PSEUDO TOTAL   ENERGY                        -1.2052014582823E+03
 ::: VIRIAL COEFFICIENT                            1.0434665001289E+00
 TTTTTTTTTTTTTTTTTTTTTTTTTTTTTT MONMO3      TELAPSE       24.79 TCPU       23.76
 NUMERICALLY INTEGRATED DENSITY     89.9999640140
 TTTTTTTTTTTTTTTTTTTTTTTTTTTTTT NUMDFT      TELAPSE       26.01 TCPU       24.97
 CYC  14 ETOT(AU) -1.316459288646E+03 DETOT  3.29E-08 tst  3.10E-09 PX  1.50E-05

 == SCF ENDED - CONVERGENCE ON ENERGY      E(AU) -1.3164592886459E+03 CYCLES  14


 ENERGY EXPRESSION=HARTREE+FOCK EXCH*0.00000+(PBESOL     EXCH)*1.00000+PBESOL     CORR


 TOTAL ENERGY(DFT)(AU)( 14) -1.3164592886459E+03 DE 3.3E-08 tester 3.1E-09
 TTTTTTTTTTTTTTTTTTTTTTTTTTTTTT EDFT        TELAPSE       26.01 TCPU       24.98

 *******************************************************************************
 *                             FORCE CALCULATION                               *
 *******************************************************************************

 TTTTTTTTTTTTTTTTTTTTTTTTTTTTTT NUMDFG      TELAPSE       34.15 TCPU       33.11
 INFORMATION **** EXCPOG **** EXCH. BIPO BUFFER LENGTH (WORDS) =           0
 INFORMATION **** GENPOG **** BIPO BUFFER LENGTH (WORDS) =      192600
 TTTTTTTTTTTTTTTTTTTTTTTTTTTTTT SHELXG      TELAPSE       35.76 TCPU       34.72

 CARTESIAN FORCES IN HARTREE/BOHR (ANALYTICAL)
   ATOM                     X                   Y                   Z
   1  14             5.625129991434E-15 -2.960594732334E-16 -3.552713678801E-15
   2  14            -4.070817756959E-15  7.845576040684E-15  2.442697811728E-14
   3  14             2.960594732334E-16 -5.921189464668E-16 -1.184237892934E-15
   4   8            -8.098575549918E-03  1.402714432140E-02 -1.924386576017E-15
   5   8             8.098575549919E-03 -1.402714432140E-02  2.664535259100E-15
   6   8            -8.098575549920E-03 -1.402714432140E-02 -5.173423308882E-15
   7   8             1.619715109984E-02 -5.717648576820E-15  4.440892098501E-16
   8   8            -1.619715109984E-02 -3.016105883565E-15 -8.141635513918E-15
   9   8             8.098575549913E-03  1.402714432139E-02 -5.403085386509E-15

 RESULTANT FORCE    -3.694961003831E-16 -1.776356839400E-15  2.156120229174E-15

 ATOMIC PART

 SYMMETRY ALLOWED FORCES (ANALYTICAL) (DIRECTION, FORCE)

    1 -3.9674755E-02

 CELL PART

 GRADIENT WITH RESPECT TO THE CELL PARAMETER IN HARTREE/BOHR
ORDER: -D/DA1X, -D/DA1Y, -D/DA1Z
       -D/DA2X, -D/DA2Y, -D/DA2Z
       -D/DA3X, -D/DA3Y, -D/DA3Z
  0.496656835455E-01 -0.200300573574E-14  0.115570514756E-14
  0.248328417727E-01  0.430117436467E-01 -0.127718821665E-14
  0.360508845518E-15 -0.403148759324E-14  0.377158697020E-01

STRESS TENSOR, IN HARTREE/BOHR^3:
ORDER: 11 12 13
       21 22 23
       31 32 33
 -0.507084985006E-03 -0.104721380038E-16 -0.467470531967E-17
  0.204506222601E-16 -0.507084985006E-03  0.522761555856E-16
 -0.117997113013E-16  0.218699185768E-16 -0.489060334923E-03

PRESSURE FROM THE STRESS TENSOR,
IN HARTREE/BOHR^3:  0.50108E-03
PRESSURE IN GIGAPASCAL:  0.1474E+02
CONVERSION FACTOR: 1 HARTREE/BOHR^3= 29421 GIGAPASCAL
WHEN USING VALUES FOR BOHR RADIUS AND HARTREE
FROM IUPAC WEBSITE, APRIL 2009
ENTHALPY: -1.3160582131839E+03

 SYMMETRY ALLOWED FORCES (ANALYTICAL) (DIRECTION, FORCE)

    1  1.0911075E-01    2  6.3490859E-04
 TTTTTTTTTTTTTTTTTTTTTTTTTTTTTT TOTGRA_C    TELAPSE       39.57 TCPU       38.53
 INFORMATION **** optc001 **** GEOMETRY OUTPUT FILE
 CLASSICAL MODEL (SCHLEGEL) USED AS INITIAL HESSIAN MATRIX
 REFERENCE GEOMETRY DEFINED

 MAX GRADIENT      0.109111  THRESHOLD              0.000450 CONVERGED NO
 RMS GRADIENT      0.067031  THRESHOLD              0.000300 CONVERGED NO

 GRADIENT NORM     0.116102  GRADIENT THRESHOLD     0.500000

 EIGENVALUES OF THE ESTIMATED HESSIAN
  0.8531E-02  0.2016      0.4036    

 INITIAL TRUST RADIUS    0.5000000000E+00

 PREDICTED ENERGY CHANGE    -0.195E-01

 INITIAL DISPLACEMENTS
 -0.011326  0.353782  0.052029
 TTTTTTTTTTTTTTTTTTTTTTTTTTTTTT OPTI        TELAPSE       39.58 TCPU       38.54

 OPTOPTOPTOPTOPTOPTOPTOPTOPTOPTOPTOPTOPTOPTOPTOPTOPTOPTOPTOPTOPTOPTOPTOPTOPTOPT

 STARTING GEOMETRY OPTIMIZATION - INFORMATION ON SCF MOVED TO SCFOUT.LOG
 GEOMETRY OPTIMIZATION INFORMATION STORED IN OPTINFO.DAT

 OPTOPTOPTOPTOPTOPTOPTOPTOPTOPTOPTOPTOPTOPTOPTOPTOPTOPTOPTOPTOPTOPTOPTOPTOPTOPT
 *******************************************************************************
 COORDINATE AND CELL OPTIMIZATION - POINT    2
 *******************************************************************************
 LATTICE PARAMETERS (ANGSTROMS AND DEGREES) - BOHR = 0.5291772083 ANGSTROM
 PRIMITIVE CELL - CENTRING CODE 1/0 VOLUME=   130.396423 - DENSITY  2.291 g/cm^3
         A              B              C           ALPHA      BETA       GAMMA 
     5.15955382     5.15955382     5.65601761    90.000000  90.000000 120.000000
 *******************************************************************************
 ATOMS IN THE ASYMMETRIC UNIT    2 - ATOMS IN THE UNIT CELL:    9
     ATOM              X/A                 Y/B                 Z/C    
 *******************************************************************************
   1 T  14 SI   -5.000000000000E-01 -5.000000000000E-01  3.333333333333E-01
   2 F  14 SI   -5.000000000000E-01  0.000000000000E+00 -1.110223024625E-16
   3 F  14 SI    5.135206876875E-17  5.000000000000E-01 -3.333333333333E-01
   4 T   8 O     2.092355565323E-01 -2.092355565323E-01 -1.666666666667E-01
   5 F   8 O    -2.092355565323E-01  2.092355565323E-01 -1.666666666667E-01
   6 F   8 O     2.092355565323E-01  4.184711130647E-01  5.000000000000E-01
   7 F   8 O    -4.184711130647E-01 -2.092355565323E-01  1.666666666667E-01
   8 F   8 O     4.184711130647E-01  2.092355565323E-01  1.666666666667E-01
   9 F   8 O    -2.092355565323E-01 -4.184711130647E-01  5.000000000000E-01

 T = ATOM BELONGING TO THE ASYMMETRIC UNIT

 TOTAL ENERGY(DFT)(AU)( 10) -1.3164719897528E+03     DE (AU)   -1.270E-02

 UPDATED TRUST RADIUS     0.500E+00

 SYMMETRY ALLOWED FORCES  (COORDINATE, FORCE)

    1 -1.5800768E-03    2 -3.4165223E-02    3  7.3877334E-04

 GRADIENT NORM     0.034210  GRADIENT THRESHOLD     0.500000

 EIGENVALUES OF THE ESTIMATED HESSIAN
  0.8525E-02  0.2327      0.4577    

 PREDICTED ENERGY CHANGE    -0.164E-02

 MAX GRADIENT      0.034165  THRESHOLD              0.000450 CONVERGED NO
 RMS GRADIENT      0.019751  THRESHOLD              0.000300 CONVERGED NO
 MAX DISPLAC.      0.093592  THRESHOLD              0.001800 CONVERGED NO
 RMS DISPLAC.      0.059597  THRESHOLD              0.001200 CONVERGED NO
 TTTTTTTTTTTTTTTTTTTTTTTTTTTTTT OPTI        TELAPSE       71.18 TCPU       70.14
 *******************************************************************************
 COORDINATE AND CELL OPTIMIZATION - POINT    3
 *******************************************************************************
 LATTICE PARAMETERS (ANGSTROMS AND DEGREES) - BOHR = 0.5291772083 ANGSTROM
 PRIMITIVE CELL - CENTRING CODE 1/0 VOLUME=   127.104351 - DENSITY  2.350 g/cm^3
         A              B              C           ALPHA      BETA       GAMMA 
     5.11850142     5.11850142     5.60201322    90.000000  90.000000 120.000000
 *******************************************************************************
 ATOMS IN THE ASYMMETRIC UNIT    2 - ATOMS IN THE UNIT CELL:    9
     ATOM              X/A                 Y/B                 Z/C    
 *******************************************************************************
   1 T  14 SI   -5.000000000000E-01 -5.000000000000E-01  3.333333333333E-01
   2 F  14 SI   -5.000000000000E-01 -5.551115123126E-17 -1.110223024625E-16
   3 F  14 SI    5.137667615218E-17 -5.000000000000E-01 -3.333333333333E-01
   4 T   8 O     2.083298836388E-01 -2.083298836388E-01 -1.666666666667E-01
   5 F   8 O    -2.083298836388E-01  2.083298836388E-01 -1.666666666667E-01
   6 F   8 O     2.083298836388E-01  4.166597672775E-01 -5.000000000000E-01
   7 F   8 O    -4.166597672775E-01 -2.083298836388E-01  1.666666666667E-01
   8 F   8 O     4.166597672775E-01  2.083298836388E-01  1.666666666667E-01
   9 F   8 O    -2.083298836388E-01 -4.166597672775E-01 -5.000000000000E-01

 T = ATOM BELONGING TO THE ASYMMETRIC UNIT

 TOTAL ENERGY(DFT)(AU)(  8) -1.3164738310470E+03     DE (AU)   -1.841E-03

 UPDATED TRUST RADIUS     0.100E+01

 SYMMETRY ALLOWED FORCES  (COORDINATE, FORCE)

    1 -6.9513912E-03    2 -1.9926938E-03    3  4.3194773E-04

 GRADIENT NORM     0.007244  GRADIENT THRESHOLD     0.500000

 EIGENVALUES OF THE ESTIMATED HESSIAN
  0.8509E-02  0.1709      0.5387    

 PREDICTED ENERGY CHANGE    -0.143E-03

 MAX GRADIENT      0.006951  THRESHOLD              0.000450 CONVERGED NO
 RMS GRADIENT      0.004182  THRESHOLD              0.000300 CONVERGED NO
 MAX DISPLAC.      0.034231  THRESHOLD              0.001800 CONVERGED NO
 RMS DISPLAC.      0.025734  THRESHOLD              0.001200 CONVERGED NO
 TTTTTTTTTTTTTTTTTTTTTTTTTTTTTT OPTI        TELAPSE      100.57 TCPU       99.52
 *******************************************************************************
 COORDINATE AND CELL OPTIMIZATION - POINT    4
 *******************************************************************************
 LATTICE PARAMETERS (ANGSTROMS AND DEGREES) - BOHR = 0.5291772083 ANGSTROM
 PRIMITIVE CELL - CENTRING CODE 1/0 VOLUME=   126.432190 - DENSITY  2.363 g/cm^3
         A              B              C           ALPHA      BETA       GAMMA 
     5.11181522     5.11181522     5.58697510    90.000000  90.000000 120.000000
 *******************************************************************************
 ATOMS IN THE ASYMMETRIC UNIT    2 - ATOMS IN THE UNIT CELL:    9
     ATOM              X/A                 Y/B                 Z/C    
 *******************************************************************************
   1 T  14 SI   -5.000000000000E-01 -5.000000000000E-01  3.333333333333E-01
   2 F  14 SI   -5.000000000000E-01 -5.551115123126E-17 -1.110223024625E-16
   3 F  14 SI    5.139990676533E-17 -5.000000000000E-01 -3.333333333333E-01
   4 T   8 O     2.074748826716E-01 -2.074748826716E-01 -1.666666666667E-01
   5 F   8 O    -2.074748826716E-01  2.074748826716E-01 -1.666666666667E-01
   6 F   8 O     2.074748826716E-01  4.149497653431E-01 -5.000000000000E-01
   7 F   8 O    -4.149497653431E-01 -2.074748826716E-01  1.666666666667E-01
   8 F   8 O     4.149497653431E-01  2.074748826716E-01  1.666666666667E-01
   9 F   8 O    -2.074748826716E-01 -4.149497653431E-01 -5.000000000000E-01

 T = ATOM BELONGING TO THE ASYMMETRIC UNIT

 TOTAL ENERGY(DFT)(AU)(  5) -1.3164740369821E+03     DE (AU)   -2.059E-04

 UPDATED TRUST RADIUS     0.200E+01

 SYMMETRY ALLOWED FORCES  (COORDINATE, FORCE)

    1 -5.3090406E-03    2  2.1064782E-03    3  2.0314216E-04

 GRADIENT NORM     0.005715  GRADIENT THRESHOLD     0.500000

 EIGENVALUES OF THE ESTIMATED HESSIAN
  0.8488E-02  0.7741E-01  0.5874    

 PREDICTED ENERGY CHANGE    -0.126E-03

 MAX GRADIENT      0.005309  THRESHOLD              0.000450 CONVERGED NO
 RMS GRADIENT      0.003300  THRESHOLD              0.000300 CONVERGED NO
 MAX DISPLAC.      0.052072  THRESHOLD              0.001800 CONVERGED NO
 RMS DISPLAC.      0.032624  THRESHOLD              0.001200 CONVERGED NO
 TTTTTTTTTTTTTTTTTTTTTTTTTTTTTT OPTI        TELAPSE      124.85 TCPU      123.80
 *******************************************************************************
 COORDINATE AND CELL OPTIMIZATION - POINT    5
 *******************************************************************************
 LATTICE PARAMETERS (ANGSTROMS AND DEGREES) - BOHR = 0.5291772083 ANGSTROM
 PRIMITIVE CELL - CENTRING CODE 1/0 VOLUME=   125.967119 - DENSITY  2.372 g/cm^3
         A              B              C           ALPHA      BETA       GAMMA 
     5.10748264     5.10748264     5.57587164    90.000000  90.000000 120.000000
 *******************************************************************************
 ATOMS IN THE ASYMMETRIC UNIT    2 - ATOMS IN THE UNIT CELL:    9
     ATOM              X/A                 Y/B                 Z/C    
 *******************************************************************************
   1 T  14 SI   -5.000000000000E-01 -5.000000000000E-01  3.333333333333E-01
   2 F  14 SI   -5.000000000000E-01 -5.551115123126E-17 -1.110223024625E-16
   3 F  14 SI    5.143524516605E-17 -5.000000000000E-01 -3.333333333333E-01
   4 T   8 O     2.061742554947E-01 -2.061742554947E-01 -1.666666666667E-01
   5 F   8 O    -2.061742554947E-01  2.061742554947E-01 -1.666666666667E-01
   6 F   8 O     2.061742554947E-01  4.123485109894E-01 -5.000000000000E-01
   7 F   8 O    -4.123485109894E-01 -2.061742554947E-01  1.666666666667E-01
   8 F   8 O     4.123485109894E-01  2.061742554947E-01  1.666666666667E-01
   9 F   8 O    -2.061742554947E-01 -4.123485109894E-01 -5.000000000000E-01

 T = ATOM BELONGING TO THE ASYMMETRIC UNIT

 TOTAL ENERGY(DFT)(AU)(  7) -1.3164741693091E+03     DE (AU)   -1.323E-04

 UPDATED TRUST RADIUS     0.400E+01

 SYMMETRY ALLOWED FORCES  (COORDINATE, FORCE)

    1 -1.1517422E-03    2  2.0602635E-03    3 -8.1313964E-05

 GRADIENT NORM     0.002362  GRADIENT THRESHOLD     0.500000

 EIGENVALUES OF THE ESTIMATED HESSIAN
  0.8597E-02  0.7292E-01  0.5406    

 PREDICTED ENERGY CHANGE    -0.706E-05

 MAX GRADIENT      0.002060  THRESHOLD              0.000450 CONVERGED NO
 RMS GRADIENT      0.001364  THRESHOLD              0.000300 CONVERGED NO
 MAX DISPLAC.      0.010335  THRESHOLD              0.001800 CONVERGED NO
 RMS DISPLAC.      0.007651  THRESHOLD              0.001200 CONVERGED NO
 TTTTTTTTTTTTTTTTTTTTTTTTTTTTTT OPTI        TELAPSE      151.60 TCPU      150.55
 *******************************************************************************
 COORDINATE AND CELL OPTIMIZATION - POINT    6
 *******************************************************************************
 LATTICE PARAMETERS (ANGSTROMS AND DEGREES) - BOHR = 0.5291772083 ANGSTROM
 PRIMITIVE CELL - CENTRING CODE 1/0 VOLUME=   126.033353 - DENSITY  2.370 g/cm^3
         A              B              C           ALPHA      BETA       GAMMA 
     5.10721642     5.10721642     5.57938506    90.000000  90.000000 120.000000
 *******************************************************************************
 ATOMS IN THE ASYMMETRIC UNIT    2 - ATOMS IN THE UNIT CELL:    9
     ATOM              X/A                 Y/B                 Z/C    
 *******************************************************************************
   1 T  14 SI   -5.000000000000E-01 -5.000000000000E-01  3.333333333333E-01
   2 F  14 SI   -5.000000000000E-01  0.000000000000E+00 -1.110223024625E-16
   3 F  14 SI    5.144071892122E-17 -5.000000000000E-01 -3.333333333333E-01
   4 T   8 O     2.059727943483E-01 -2.059727943483E-01 -1.666666666667E-01
   5 F   8 O    -2.059727943483E-01  2.059727943483E-01 -1.666666666667E-01
   6 F   8 O     2.059727943483E-01  4.119455886966E-01 -5.000000000000E-01
   7 F   8 O    -4.119455886966E-01 -2.059727943483E-01  1.666666666667E-01
   8 F   8 O     4.119455886966E-01  2.059727943483E-01  1.666666666667E-01
   9 F   8 O    -2.059727943483E-01 -4.119455886966E-01 -5.000000000000E-01

 T = ATOM BELONGING TO THE ASYMMETRIC UNIT

 TOTAL ENERGY(DFT)(AU)(  4) -1.3164741765715E+03     DE (AU)   -7.262E-06

 UPDATED TRUST RADIUS     0.400E+01

 SYMMETRY ALLOWED FORCES  (COORDINATE, FORCE)

    1 -1.3646702E-04    2  4.8947343E-04    3 -5.6273458E-05

 GRADIENT NORM     0.000511  GRADIENT THRESHOLD     0.500000

 EIGENVALUES OF THE ESTIMATED HESSIAN
  0.7914E-02  0.7824E-01  0.4453    

 PREDICTED ENERGY CHANGE    -0.545E-06

 MAX GRADIENT      0.000489  THRESHOLD              0.000450 CONVERGED NO
 RMS GRADIENT      0.000295  THRESHOLD              0.000300 CONVERGED YES
 MAX DISPLAC.      0.008008  THRESHOLD              0.001800 CONVERGED NO
 RMS DISPLAC.      0.004684  THRESHOLD              0.001200 CONVERGED NO
 TTTTTTTTTTTTTTTTTTTTTTTTTTTTTT OPTI        TELAPSE      173.90 TCPU      172.85
 *******************************************************************************
 COORDINATE AND CELL OPTIMIZATION - POINT    7
 *******************************************************************************
 LATTICE PARAMETERS (ANGSTROMS AND DEGREES) - BOHR = 0.5291772083 ANGSTROM
 PRIMITIVE CELL - CENTRING CODE 1/0 VOLUME=   126.072024 - DENSITY  2.370 g/cm^3
         A              B              C           ALPHA      BETA       GAMMA 
     5.10683898     5.10683898     5.58192200    90.000000  90.000000 120.000000
 *******************************************************************************
 ATOMS IN THE ASYMMETRIC UNIT    2 - ATOMS IN THE UNIT CELL:    9
     ATOM              X/A                 Y/B                 Z/C    
 *******************************************************************************
   1 T  14 SI    5.000000000000E-01 -5.000000000000E-01  3.333333333333E-01
   2 F  14 SI    5.000000000000E-01 -5.551115123126E-17 -1.110223024625E-16
   3 F  14 SI    5.144115737892E-17  5.000000000000E-01 -3.333333333333E-01
   4 T   8 O     2.059566569453E-01 -2.059566569453E-01 -1.666666666667E-01
   5 F   8 O    -2.059566569453E-01  2.059566569453E-01 -1.666666666667E-01
   6 F   8 O     2.059566569453E-01  4.119133138906E-01  5.000000000000E-01
   7 F   8 O    -4.119133138906E-01 -2.059566569453E-01  1.666666666667E-01
   8 F   8 O     4.119133138906E-01  2.059566569453E-01  1.666666666667E-01
   9 F   8 O    -2.059566569453E-01 -4.119133138906E-01  5.000000000000E-01

 T = ATOM BELONGING TO THE ASYMMETRIC UNIT

 TOTAL ENERGY(DFT)(AU)(  4) -1.3164741767405E+03     DE (AU)   -1.690E-07

 UPDATED TRUST RADIUS     0.400E+01

 SYMMETRY ALLOWED FORCES  (COORDINATE, FORCE)

    1  2.3424699E-05    2 -2.6447902E-05    3 -1.4942250E-05

 GRADIENT NORM     0.000038  GRADIENT THRESHOLD     0.500000

 EIGENVALUES OF THE ESTIMATED HESSIAN
  0.6648E-02  0.7788E-01  0.4961    

 PREDICTED ENERGY CHANGE    -0.162E-07

 MAX GRADIENT      0.000026  THRESHOLD              0.000450 CONVERGED YES
 RMS GRADIENT      0.000022  THRESHOLD              0.000300 CONVERGED YES
 MAX DISPLAC.      0.002037  THRESHOLD              0.001800 CONVERGED NO
 RMS DISPLAC.      0.001177  THRESHOLD              0.001200 CONVERGED YES
 TTTTTTTTTTTTTTTTTTTTTTTTTTTTTT OPTI        TELAPSE      196.60 TCPU      195.55
 *******************************************************************************
 COORDINATE AND CELL OPTIMIZATION - POINT    8
 *******************************************************************************
 LATTICE PARAMETERS (ANGSTROMS AND DEGREES) - BOHR = 0.5291772083 ANGSTROM
 PRIMITIVE CELL - CENTRING CODE 1/0 VOLUME=   126.072383 - DENSITY  2.370 g/cm^3
         A              B              C           ALPHA      BETA       GAMMA 
     5.10661497     5.10661497     5.58242765    90.000000  90.000000 120.000000
 *******************************************************************************
 ATOMS IN THE ASYMMETRIC UNIT    2 - ATOMS IN THE UNIT CELL:    9
     ATOM              X/A                 Y/B                 Z/C    
 *******************************************************************************
   1 T  14 SI    5.000000000000E-01  5.000000000000E-01  3.333333333333E-01
   2 F  14 SI    5.000000000000E-01 -2.775557561563E-17 -1.110223024625E-16
   3 F  14 SI    5.144109406384E-17  5.000000000000E-01 -3.333333333333E-01
   4 T   8 O     2.059589872521E-01 -2.059589872521E-01 -1.666666666667E-01
   5 F   8 O    -2.059589872521E-01  2.059589872521E-01 -1.666666666667E-01
   6 F   8 O     2.059589872521E-01  4.119179745041E-01  5.000000000000E-01
   7 F   8 O    -4.119179745041E-01 -2.059589872521E-01  1.666666666667E-01
   8 F   8 O     4.119179745041E-01  2.059589872521E-01  1.666666666667E-01
   9 F   8 O    -2.059589872521E-01 -4.119179745041E-01  5.000000000000E-01

 T = ATOM BELONGING TO THE ASYMMETRIC UNIT

 TOTAL ENERGY(DFT)(AU)(  3) -1.3164741765630E+03     DE (AU)    1.775E-07

 UPDATED TRUST RADIUS     0.510E-03
 ENERGY CHANGE > 0: STEP REJECTED.
 RETRY WITH A NEW STEP.

 EIGENVALUES OF THE ESTIMATED HESSIAN
  0.6648E-02  0.7788E-01  0.4961    
 NEWTON STEP ( 0.2038998448E-02) EXCEEDS TRUST RADIUS ( 0.5097496121E-03)
 LEVEL SHIFT    -0.1981472792E-01

 PREDICTED ENERGY CHANGE    -0.816E-08

 MAX GRADIENT      0.000026  THRESHOLD              0.000450 CONVERGED YES
 RMS GRADIENT      0.000022  THRESHOLD              0.000300 CONVERGED YES
 MAX DISPLAC.      0.000493  THRESHOLD              0.001800 CONVERGED YES
 RMS DISPLAC.      0.000294  THRESHOLD              0.001200 CONVERGED YES

 CONVERGENCE TESTS SATISFIED AFTER   8 ENERGY AND GRADIENT CALCULATIONS
++++++++++++++++++++++++++++++++++++++++++++++++++++++++++++++++++++++
 FINALRUN OPTION: RE-STARTING OPTIMIZATION
++++++++++++++++++++++++++++++++++++++++++++++++++++++++++++++++++++++
 TTTTTTTTTTTTTTTTTTTTTTTTTTTTTT OPTI        TELAPSE      204.35 TCPU      203.29
 *******************************************************************************
 COORDINATE AND CELL OPTIMIZATION - POINT    9
 *******************************************************************************
 LATTICE PARAMETERS (ANGSTROMS AND DEGREES) - BOHR = 0.5291772083 ANGSTROM
 PRIMITIVE CELL - CENTRING CODE 1/0 VOLUME=   126.071702 - DENSITY  2.370 g/cm^3
         A              B              C           ALPHA      BETA       GAMMA 
     5.10677925     5.10677925     5.58203831    90.000000  90.000000 120.000000
 *******************************************************************************
 ATOMS IN THE ASYMMETRIC UNIT    2 - ATOMS IN THE UNIT CELL:    9
     ATOM              X/A                 Y/B                 Z/C    
 *******************************************************************************
   1 T  14 SI   -5.000000000000E-01 -5.000000000000E-01  3.333333333333E-01
   2 F  14 SI   -5.000000000000E-01 -5.551115123126E-17 -1.110223024625E-16
   3 F  14 SI    5.144106923902E-17 -5.000000000000E-01 -3.333333333333E-01
   4 T   8 O     2.059599009278E-01 -2.059599009278E-01 -1.666666666667E-01
   5 F   8 O    -2.059599009278E-01  2.059599009278E-01 -1.666666666667E-01
   6 F   8 O     2.059599009278E-01  4.119198018556E-01 -5.000000000000E-01
   7 F   8 O    -4.119198018556E-01 -2.059599009278E-01  1.666666666667E-01
   8 F   8 O     4.119198018556E-01  2.059599009278E-01  1.666666666667E-01
   9 F   8 O    -2.059599009278E-01 -4.119198018556E-01 -5.000000000000E-01

 T = ATOM BELONGING TO THE ASYMMETRIC UNIT

 ENERGY DIFFERENCE WITH RESPECT TO FIRST CALCULATION USING
 THE PRESENT REFERENCE GEOMETRY:  1.316474176563E+03

 MAXIMUM ATOM DISPLACEMENT WITH RESPECT TO
 THE PRESENT REFERENCE GEOMETRY:   1.209055524445E-01

 REFERENCE GEOMETRY WILL BE CHANGED

 TOTAL ENERGY(DFT)(AU)( 14) -1.3164741351770E+03     DE (AU)    4.156E-05

 SYMMETRY ALLOWED FORCES  (COORDINATE, FORCE)

    1  9.8500087E-05    2 -6.3579477E-05    3 -3.1989337E-05

 GRADIENT NORM     0.000122  GRADIENT THRESHOLD     0.500000

 HESSIAN UPDATE SKIPPED

 EIGENVALUES OF THE ESTIMATED HESSIAN
  0.6648E-02  0.7788E-01  0.4961    
 NEWTON STEP ( 0.4072082504E-02) EXCEEDS TRUST RADIUS ( 0.5097496121E-03)
 LEVEL SHIFT    -0.4487802267E-01

 PREDICTED ENERGY CHANGE    -0.382E-07

 MAX GRADIENT      0.000099  THRESHOLD              0.000450 CONVERGED YES
 RMS GRADIENT      0.000070  THRESHOLD              0.000300 CONVERGED YES
 MAX DISPLAC.      0.000380  THRESHOLD              0.001800 CONVERGED YES
 RMS DISPLAC.      0.000294  THRESHOLD              0.001200 CONVERGED YES

 CONVERGENCE TESTS SATISFIED AFTER   9 ENERGY AND GRADIENT CALCULATIONS

 ******************************************************************
 * OPT END - CONVERGED * E(AU):  -1.316474135177E+03  POINTS    9 *
 ******************************************************************

 EIGENVECTORS IN FORTRAN UNIT 10

 NEIGHBORS OF THE NON-EQUIVALENT ATOMS

 N = NUMBER OF NEIGHBORS AT DISTANCE R
    ATOM  N     R/ANG      R/AU   NEIGHBORS (ATOM LABELS AND CELL INDICES)
   1 SI   4     1.6270     3.0746    6 O    0 0 0    7 O    1 1 0    8 O    0 0 0
                                     9 O    1 1 0
   1 SI   4     3.1594     5.9704    2 SI   0 0 0    2 SI   0 1 0    3 SI   1 0 1
                                     3 SI   0 0 1
   1 SI   4     3.8150     7.2093    4 O    0 1 0    4 O    0 1 1    5 O    1 0 0
                                     5 O    1 0 1
   1 SI   4     3.9607     7.4846    6 O    1 0 0    7 O    1 0 0    8 O    0 1 0
                                     9 O    0 1 0
   1 SI   8     4.1986     7.9342    4 O    0 0 0    4 O    1 1 0    4 O    0 0 1
                                     4 O    1 1 1    5 O    1 1 0    5 O    0 0 0
                                     5 O    1 1 1    5 O    0 0 1
   1 SI   4     4.3314     8.1852    6 O    1 1 0    7 O    0 0 0    8 O    1 1 0
                                     9 O    0 0 0

   4 O    2     1.6270     3.0746    2 SI   0 0 0    3 SI   0-1 0
   4 O    2     2.6040     4.9209    8 O    0 0 0    9 O    0 0-1
   4 O    2     2.6696     5.0448    5 O    1 0 0    5 O    0-1 0
   4 O    2     2.6963     5.0953    6 O    0-1-1    7 O    1 0 0
   4 O    1     3.6435     6.8852    5 O    0 0 0
   4 O    2     3.6631     6.9223    6 O    0 0-1    7 O    0 0 0


 FINAL OPTIMIZED GEOMETRY - DIMENSIONALITY OF THE SYSTEM      3
 (NON PERIODIC DIRECTION: LATTICE PARAMETER FORMALLY SET TO 500)
 *******************************************************************************
 LATTICE PARAMETERS (ANGSTROMS AND DEGREES) - BOHR = 0.5291772083 ANGSTROM
 PRIMITIVE CELL - CENTRING CODE 1/0 VOLUME=   126.071702 - DENSITY  2.370 g/cm^3
         A              B              C           ALPHA      BETA       GAMMA 
     5.10677925     5.10677925     5.58203831    90.000000  90.000000 120.000000
 *******************************************************************************
 ATOMS IN THE ASYMMETRIC UNIT    2 - ATOMS IN THE UNIT CELL:    9
     ATOM              X/A                 Y/B                 Z/C    
 *******************************************************************************
   1 T  14 SI   -5.000000000000E-01 -5.000000000000E-01  3.333333333333E-01
   2 F  14 SI   -5.000000000000E-01 -5.551115123126E-17 -1.110223024625E-16
   3 F  14 SI    5.144106923902E-17 -5.000000000000E-01 -3.333333333333E-01
   4 T   8 O     2.059599009278E-01 -2.059599009278E-01 -1.666666666667E-01
   5 F   8 O    -2.059599009278E-01  2.059599009278E-01 -1.666666666667E-01
   6 F   8 O     2.059599009278E-01  4.119198018556E-01 -5.000000000000E-01
   7 F   8 O    -4.119198018556E-01 -2.059599009278E-01  1.666666666667E-01
   8 F   8 O     4.119198018556E-01  2.059599009278E-01  1.666666666667E-01
   9 F   8 O    -2.059599009278E-01 -4.119198018556E-01 -5.000000000000E-01

 T = ATOM BELONGING TO THE ASYMMETRIC UNIT
 INFORMATION **** fort.34 **** GEOMETRY OUTPUT FILE

 DIRECT LATTICE VECTORS CARTESIAN COMPONENTS (ANGSTROM)
          X                    Y                    Z
   0.442260056582E+01  -0.255338962719E+01   0.000000000000E+00
   0.000000000000E+00   0.510677925439E+01   0.000000000000E+00
   0.000000000000E+00   0.000000000000E+00   0.558203831014E+01


 CARTESIAN COORDINATES - PRIMITIVE CELL
 *******************************************************************************
 *      ATOM          X(ANGSTROM)         Y(ANGSTROM)         Z(ANGSTROM)
 *******************************************************************************
    1    14 SI    2.211300282908E+00  1.276694813596E+00  1.860679436714E+00
    2    14 SI    2.211300282908E+00 -1.276694813596E+00 -6.197307456260E-16
    3    14 SI    2.275033019227E-16  2.553389627193E+00 -1.860679436714E+00
    4     8 O     9.108783743790E-01 -1.577687623940E+00 -9.303397183571E-01
    5     8 O    -9.108783743790E-01  1.577687623940E+00 -9.303397183571E-01
    6     8 O     9.108783743790E-01  1.577687623940E+00  2.791019155071E+00
    7     8 O    -1.821756748758E+00 -3.604898478717E-16  9.303397183571E-01
    8     8 O     1.821756748758E+00  3.604898478717E-16  9.303397183571E-01
    9     8 O    -9.108783743790E-01 -1.577687623940E+00  2.791019155071E+00

 ****   12 SYMMOPS - TRANSLATORS IN FRACTIONAL UNITS
 **** MATRICES AND TRANSLATORS IN THE CRYSTALLOGRAPHIC REFERENCE FRAME
   V INV                    ROTATION MATRICES                   TRANSLATORS
   1   1  1.00  0.00  0.00  0.00  1.00  0.00  0.00  0.00  1.00  0.00  0.00  0.00
   2   2 -1.00  0.00  0.00  0.00 -1.00  0.00  0.00  0.00  1.00  0.00  0.00  0.00
   3   4  0.00 -1.00  0.00  1.00 -1.00  0.00  0.00  0.00  1.00  0.00  0.00  0.67
   4   3 -1.00  1.00  0.00 -1.00  0.00  0.00  0.00  0.00  1.00  0.00  0.00  0.33
   5   6  1.00 -1.00  0.00  1.00  0.00  0.00  0.00  0.00  1.00  0.00  0.00  0.33
   6   5 -0.00  1.00  0.00 -1.00  1.00  0.00  0.00  0.00  1.00  0.00  0.00  0.67
   7   7  1.00 -1.00  0.00 -0.00 -1.00  0.00  0.00  0.00 -1.00  0.00  0.00  0.00
   8   8 -1.00  0.00  0.00 -1.00  1.00  0.00  0.00  0.00 -1.00  0.00  0.00  0.33
   9   9 -0.00  1.00  0.00  1.00  0.00  0.00  0.00  0.00 -1.00  0.00  0.00  0.67
  10  10  0.00 -1.00  0.00 -1.00  0.00  0.00  0.00  0.00 -1.00  0.00  0.00  0.67
  11  11  1.00  0.00  0.00  1.00 -1.00  0.00  0.00  0.00 -1.00  0.00  0.00  0.33
  12  12 -1.00  1.00  0.00  0.00  1.00  0.00  0.00  0.00 -1.00  0.00  0.00  0.00
 TTTTTTTTTTTTTTTTTTTTTTTTTTTTTT END         TELAPSE      237.45 TCPU      236.39
 EEEEEEEEEE TERMINATION  DATE 16 01 2014 TIME 11:02:51.0
NODE    0 CPU TIME =       236.391
NODE    1 CPU TIME =       236.403
NODE    2 CPU TIME =       236.435
NODE    3 CPU TIME =       236.427
NODE    4 CPU TIME =       236.379
NODE    5 CPU TIME =       236.431
NODE    6 CPU TIME =       236.187
NODE    7 CPU TIME =       236.435
    TOTAL CPU TIME =      1891.086
Thu Jan 16 11:02:51 CET 2014
total 47376
-rw------- 1 civalleri users     9608 Jan 16 11:02 FORCES.DAT
-rw------- 1 civalleri users      192 Jan 16 11:02 HESSOPT.DAT
-rw-r--r-- 1 civalleri users      895 Jan 16 10:58 INPUT
-rw------- 1 civalleri users  1198001 Jan 16 11:02 OPTINFO.DAT
-rwxr-xr-x 1 civalleri users 43239964 Jan 16 10:58 Pcrystal-64565
-rw------- 1 civalleri users   102300 Jan 16 11:02 SCFOUT.LOG
-rw------- 1 civalleri users        0 Jan 16 10:58 dffit3.dat
-rw------- 1 civalleri users        0 Jan 16 10:58 fort.1.pe0
-rw------- 1 civalleri users        0 Jan 16 10:58 fort.1.pe1
-rw------- 1 civalleri users        0 Jan 16 10:58 fort.1.pe2
-rw------- 1 civalleri users        0 Jan 16 10:58 fort.1.pe3
-rw------- 1 civalleri users        0 Jan 16 10:58 fort.1.pe4
-rw------- 1 civalleri users        0 Jan 16 10:58 fort.1.pe5
-rw------- 1 civalleri users        0 Jan 16 10:58 fort.1.pe6
-rw------- 1 civalleri users        0 Jan 16 10:58 fort.1.pe7
-rw------- 1 civalleri users    77456 Jan 16 11:02 fort.10.pe0
-rw------- 1 civalleri users    90704 Jan 16 11:02 fort.10.pe1
-rw------- 1 civalleri users    13104 Jan 16 11:02 fort.10.pe2
-rw------- 1 civalleri users    43896 Jan 16 11:02 fort.10.pe3
-rw------- 1 civalleri users    44248 Jan 16 11:02 fort.10.pe4
-rw------- 1 civalleri users    42424 Jan 16 11:02 fort.10.pe5
-rw------- 1 civalleri users   343192 Jan 16 11:02 fort.10.pe6
-rw------- 1 civalleri users    18552 Jan 16 11:02 fort.10.pe7
-rw------- 1 civalleri users    24080 Jan 16 11:02 fort.11.pe0
-rw------- 1 civalleri users    24080 Jan 16 11:02 fort.11.pe1
-rw------- 1 civalleri users    24080 Jan 16 11:02 fort.11.pe2
-rw------- 1 civalleri users    24080 Jan 16 11:02 fort.11.pe3
-rw------- 1 civalleri users    24080 Jan 16 11:02 fort.11.pe4
-rw------- 1 civalleri users    24080 Jan 16 11:02 fort.11.pe5
-rw------- 1 civalleri users    24080 Jan 16 11:02 fort.11.pe6
-rw------- 1 civalleri users    24080 Jan 16 11:02 fort.11.pe7
-rw------- 1 civalleri users   191020 Jan 16 11:02 fort.12
-rw------- 1 civalleri users        0 Jan 16 10:58 fort.17.pe1
-rw------- 1 civalleri users        0 Jan 16 10:58 fort.17.pe2
-rw------- 1 civalleri users        0 Jan 16 10:58 fort.17.pe3
-rw------- 1 civalleri users        0 Jan 16 10:58 fort.17.pe4
-rw------- 1 civalleri users        0 Jan 16 10:58 fort.17.pe5
-rw------- 1 civalleri users        0 Jan 16 10:58 fort.17.pe6
-rw------- 1 civalleri users        0 Jan 16 10:58 fort.17.pe7
-rw------- 1 civalleri users        0 Jan 16 10:58 fort.18.pe0
-rw------- 1 civalleri users        0 Jan 16 10:58 fort.18.pe1
-rw------- 1 civalleri users        0 Jan 16 10:58 fort.18.pe2
-rw------- 1 civalleri users        0 Jan 16 10:58 fort.18.pe3
-rw------- 1 civalleri users        0 Jan 16 10:58 fort.18.pe4
-rw------- 1 civalleri users        0 Jan 16 10:58 fort.18.pe5
-rw------- 1 civalleri users        0 Jan 16 10:58 fort.18.pe6
-rw------- 1 civalleri users        0 Jan 16 10:58 fort.18.pe7
-rw------- 1 civalleri users        0 Jan 16 10:58 fort.19.pe0
-rw------- 1 civalleri users        0 Jan 16 10:58 fort.19.pe1
-rw------- 1 civalleri users        0 Jan 16 10:58 fort.19.pe2
-rw------- 1 civalleri users        0 Jan 16 10:58 fort.19.pe3
-rw------- 1 civalleri users        0 Jan 16 10:58 fort.19.pe4
-rw------- 1 civalleri users        0 Jan 16 10:58 fort.19.pe5
-rw------- 1 civalleri users        0 Jan 16 10:58 fort.19.pe6
-rw------- 1 civalleri users        0 Jan 16 10:58 fort.19.pe7
-rw------- 1 civalleri users   358324 Jan 16 11:02 fort.20
-rw------- 1 civalleri users        0 Jan 16 10:58 fort.28.pe0
-rw------- 1 civalleri users        0 Jan 16 10:58 fort.28.pe1
-rw------- 1 civalleri users        0 Jan 16 10:58 fort.28.pe2
-rw------- 1 civalleri users        0 Jan 16 10:58 fort.28.pe3
-rw------- 1 civalleri users        0 Jan 16 10:58 fort.28.pe4
-rw------- 1 civalleri users        0 Jan 16 10:58 fort.28.pe5
-rw------- 1 civalleri users        0 Jan 16 10:58 fort.28.pe6
-rw------- 1 civalleri users        0 Jan 16 10:58 fort.28.pe7
-rw------- 1 civalleri users        0 Jan 16 10:58 fort.29.pe0
-rw------- 1 civalleri users        0 Jan 16 10:58 fort.29.pe1
-rw------- 1 civalleri users        0 Jan 16 10:58 fort.29.pe2
-rw------- 1 civalleri users        0 Jan 16 10:58 fort.29.pe3
-rw------- 1 civalleri users        0 Jan 16 10:58 fort.29.pe4
-rw------- 1 civalleri users        0 Jan 16 10:58 fort.29.pe5
-rw------- 1 civalleri users        0 Jan 16 10:58 fort.29.pe6
-rw------- 1 civalleri users        0 Jan 16 10:58 fort.29.pe7
-rw------- 1 civalleri users        0 Jan 16 10:58 fort.3.pe0
-rw------- 1 civalleri users        0 Jan 16 10:58 fort.3.pe1
-rw------- 1 civalleri users        0 Jan 16 10:58 fort.3.pe2
-rw------- 1 civalleri users        0 Jan 16 10:58 fort.3.pe3
-rw------- 1 civalleri users        0 Jan 16 10:58 fort.3.pe4
-rw------- 1 civalleri users        0 Jan 16 10:58 fort.3.pe5
-rw------- 1 civalleri users        0 Jan 16 10:58 fort.3.pe6
-rw------- 1 civalleri users        0 Jan 16 10:58 fort.3.pe7
-rw------- 1 civalleri users     6571 Jan 16 11:02 fort.33
-rw------- 1 civalleri users     3303 Jan 16 11:02 fort.34
-rw------- 1 civalleri users        0 Jan 16 10:58 fort.38.pe0
-rw------- 1 civalleri users        0 Jan 16 10:58 fort.38.pe1
-rw------- 1 civalleri users        0 Jan 16 10:58 fort.38.pe2
-rw------- 1 civalleri users        0 Jan 16 10:58 fort.38.pe3
-rw------- 1 civalleri users        0 Jan 16 10:58 fort.38.pe4
-rw------- 1 civalleri users        0 Jan 16 10:58 fort.38.pe5
-rw------- 1 civalleri users        0 Jan 16 10:58 fort.38.pe6
-rw------- 1 civalleri users        0 Jan 16 10:58 fort.38.pe7
-rw------- 1 civalleri users        0 Jan 16 10:58 fort.40.pe0
-rw------- 1 civalleri users        0 Jan 16 10:58 fort.40.pe1
-rw------- 1 civalleri users        0 Jan 16 10:58 fort.40.pe2
-rw------- 1 civalleri users        0 Jan 16 10:58 fort.40.pe3
-rw------- 1 civalleri users        0 Jan 16 10:58 fort.40.pe4
-rw------- 1 civalleri users        0 Jan 16 10:58 fort.40.pe5
-rw------- 1 civalleri users        0 Jan 16 10:58 fort.40.pe6
-rw------- 1 civalleri users        0 Jan 16 10:58 fort.40.pe7
-rw------- 1 civalleri users        0 Jan 16 10:58 fort.61.pe0
-rw------- 1 civalleri users        0 Jan 16 10:58 fort.61.pe1
-rw------- 1 civalleri users    18920 Jan 16 11:02 fort.61.pe2
-rw------- 1 civalleri users     4032 Jan 16 11:02 fort.61.pe3
-rw------- 1 civalleri users    27560 Jan 16 11:02 fort.61.pe4
-rw------- 1 civalleri users    16748 Jan 16 11:02 fort.61.pe5
-rw------- 1 civalleri users     7232 Jan 16 11:02 fort.61.pe6
-rw------- 1 civalleri users    13948 Jan 16 11:02 fort.61.pe7
-rw------- 1 civalleri users     8460 Jan 16 11:02 fort.62.pe0
-rw------- 1 civalleri users     7596 Jan 16 11:02 fort.62.pe1
-rw------- 1 civalleri users    11332 Jan 16 11:02 fort.62.pe2
-rw------- 1 civalleri users    14496 Jan 16 11:02 fort.62.pe3
-rw------- 1 civalleri users    14224 Jan 16 11:02 fort.62.pe4
-rw------- 1 civalleri users    11280 Jan 16 11:02 fort.62.pe5
-rw------- 1 civalleri users    16760 Jan 16 11:02 fort.62.pe6
-rw------- 1 civalleri users    11520 Jan 16 11:02 fort.62.pe7
-rw------- 1 civalleri users    77456 Jan 16 11:02 fort.8.pe0
-rw------- 1 civalleri users    90704 Jan 16 11:02 fort.8.pe1
-rw------- 1 civalleri users    13104 Jan 16 11:02 fort.8.pe2
-rw------- 1 civalleri users    43896 Jan 16 11:02 fort.8.pe3
-rw------- 1 civalleri users    44248 Jan 16 11:02 fort.8.pe4
-rw------- 1 civalleri users    42424 Jan 16 11:02 fort.8.pe5
-rw------- 1 civalleri users   343192 Jan 16 11:02 fort.8.pe6
-rw------- 1 civalleri users    18552 Jan 16 11:02 fort.8.pe7
-rw------- 1 civalleri users        0 Jan 16 10:58 fort.82.pe0
-rw------- 1 civalleri users        0 Jan 16 10:58 fort.82.pe1
-rw------- 1 civalleri users        0 Jan 16 10:58 fort.82.pe2
-rw------- 1 civalleri users        0 Jan 16 10:58 fort.82.pe3
-rw------- 1 civalleri users        0 Jan 16 10:58 fort.82.pe4
-rw------- 1 civalleri users        0 Jan 16 10:58 fort.82.pe5
-rw------- 1 civalleri users        0 Jan 16 10:58 fort.82.pe6
-rw------- 1 civalleri users        0 Jan 16 10:58 fort.82.pe7
-rw------- 1 civalleri users        0 Jan 16 10:58 fort.83.pe0
-rw------- 1 civalleri users        0 Jan 16 10:58 fort.83.pe1
-rw------- 1 civalleri users        0 Jan 16 10:58 fort.83.pe2
-rw------- 1 civalleri users        0 Jan 16 10:58 fort.83.pe3
-rw------- 1 civalleri users        0 Jan 16 10:58 fort.83.pe4
-rw------- 1 civalleri users        0 Jan 16 10:58 fort.83.pe5
-rw------- 1 civalleri users        0 Jan 16 10:58 fort.83.pe6
-rw------- 1 civalleri users        0 Jan 16 10:58 fort.83.pe7
-rw------- 1 civalleri users   358324 Jan 16 11:02 fort.9
-rw------- 1 civalleri users    33696 Jan 16 11:02 fort.95.pe0
-rw------- 1 civalleri users    33696 Jan 16 11:02 fort.95.pe1
-rw------- 1 civalleri users    33696 Jan 16 11:02 fort.95.pe2
-rw------- 1 civalleri users    33696 Jan 16 11:02 fort.95.pe3
-rw------- 1 civalleri users    33696 Jan 16 11:02 fort.95.pe4
-rw------- 1 civalleri users    33696 Jan 16 11:02 fort.95.pe5
-rw------- 1 civalleri users    33696 Jan 16 11:02 fort.95.pe6
-rw------- 1 civalleri users    33696 Jan 16 11:02 fort.95.pe7
-rw------- 1 civalleri users   906589 Jan 16 11:02 fort.98
-rw------- 1 civalleri users     3303 Jan 16 10:59 optc001
-rw------- 1 civalleri users     3303 Jan 16 11:00 optc002
-rw------- 1 civalleri users     3303 Jan 16 11:00 optc003
-rw------- 1 civalleri users     3303 Jan 16 11:00 optc004
-rw------- 1 civalleri users     3303 Jan 16 11:01 optc005
-rw------- 1 civalleri users     3303 Jan 16 11:01 optc006
-rw------- 1 civalleri users     3303 Jan 16 11:02 optc007
-rw------- 1 civalleri users     3303 Jan 16 11:02 optc009
