date Fri Feb 11 14:21:56 GMT 2011
hostname dhcp18be.kent.ac.uk
system Darwin dhcp18be.kent.ac.uk 10.6.0 Darwin Kernel Version 10.6.0: Wed Nov 10 18:13:17 PST 2010; root:xnu-1504.9.26~3/RELEASE_I386 i386
user pieremanuelecanepa
output data in /Volumes/Maxtor/PhD-Kent/Counts/CRY/MOxide/PbO/beta-PbO/beta_PbO_loredana/PBE/EFG/multipolar_wave.outp
properties executable in /Users/pieremanuelecanepa/bin/CRYSTAL09/bin/Mac-intel/v_1_0_1
input data in /Volumes/Maxtor/PhD-Kent/Counts/CRY/MOxide/PbO/beta-PbO/beta_PbO_loredana/PBE/EFG/multipolar.d3
temporary directory /Users/pieremanuelecanepa/CRYSTAL09_tmp/tmp2027_pieremanuelecanepa
wave function data from /Volumes/Maxtor/PhD-Kent/Counts/CRY/MOxide/PbO/beta-PbO/beta_PbO_loredana/PBE/EFG/wave.f9
POLI
3 1 2
POLIPRT
END


         
 *******************************************************************************
 *                                                                             *
 *                                CRYSTAL06                                    *
 *                          develop 1.0 - cvs090524                            *
 *                          Sequential executable                              *
 *                                                                             *
 *            Compiled:  02 Jan 2011 08:22                                     *
 *            Xmake: Mac-intel                                                 *
 *                                                                             *
 *                                                                             *
 *                              MAIN AUTHORS                                   *
 *                                                                             *
 *    R. DOVESI(1,10), V.R. SAUNDERS(2), C. ROETTI(1,10), R. ORLANDO (1,3),    *
 *  C.M. ZICOVICH-WILSON(1,4), F. PASCALE(5), B. CIVALLERI(1,10), K. DOLL(6),  *
 *       N.M. HARRISON(2,7), I. J. BUSH(2), Ph. D'ARCO(8), M. LLUNELL(9)       *
 *                                                                             *
 * (1) THEORETICAL CHEMISTRY GROUP - UNIVERSITA' DI TORINO - TORINO (ITALY)    *
 *      http://www.crystal.unito.it                                            *
 * (2) COMPUTATIONAL SCIENCE & ENGINEERING DEPARTMENT - CCLRC DARESBURY (UK)   *
 *     http://www.cse.clrc.ac.uk/cmg/CRYSTAL/                                  *
 * (3) UNIVERSITA' DEL PIEMONTE ORIENTALE - ALESSANDRIA (ITALY)                *
 * (4) UNIVERSIDAD AUTONOMA DEL ESTADO DE MORELOS - CUERNAVACA (MEXICO)        *
 * (5) UNIVERSITE' HENRI POINCARE' - NANCY (FRANCE)                            *
 * (6) MPI FUER FESTKOERPERFORSCHUNG - STUTTGART (GERMANY)                     *
 * (7) IMPERIAL COLLEGE - LONDON (UK)                                          *
 * (8) UNIVERSITE' PIERRE ET MARIE CURIE - PARIS (FRANCE)                      *
 * (9) UNIVERSIDAD DE BARCELONA - BARCELONA (SPAIN)                            *
 *(10) NIS - NANOSTRUCTURED INTERFACES AND SURFACES - TORINO (ITALY)           *
 *     http://www.crystal.unito.it                                             *
 *******************************************************************************
 EEEEEEEEEE STARTING  DATE 11 02 2011 TIME 14:21:56.4

 *******************************************************************************
 beta_PbO (massicot)                                                             
 CRYSTAL - PROPERTIES - TYPE OF CALCULATION :  RESTRICTED CLOSED SHELL
 *******************************************************************************
 KOHN-SHAM HAMILTONIAN

 (EXCHANGE)[CORRELATION] FUNCTIONAL:(PERDEW-BURKE-ERNZERHOF)[PERDEW-BURKE-ERNZERHOF]


 DIRECT LATTICE VECTOR COMPONENTS (BOHR)
        11.12550    0.00000    0.00000
         0.00000   10.45091    0.00000
         0.00000    0.00000    8.90375

 LATTICE PARAMETERS  (BOHR AND DEGREES) - PRIMITIVE CELL
       A          B          C         ALPHA      BETA     GAMMA        VOLUME
   11.12550   10.45091    8.90375     90.0000   90.0000   90.0000    1035.25367
 *******************************************************************************
 N. OF ATOMS PER CELL        8  COULOMB OVERLAP TOL         (T1) 10** -8
 NUMBER OF SHELLS           36  COULOMB PENETRATION TOL     (T2) 10** -8
 NUMBER OF AO              140  EXCHANGE OVERLAP TOL        (T3) 10** 20
 N. OF ELECTRONS PER CELL   48  EXCHANGE PSEUDO OVP (F(G))  (T4) 10** 20
 CORE ELECTRONS PER CELL     8  EXCHANGE PSEUDO OVP (P(G))  (T5) 10** 20
 N. OF SYMMETRY OPERATORS    8  POLE ORDER IN MONO ZONE                4
 CORE  PSEUDO POTENTIAL         TOL. ON PSEUDO              (TP) 10**- 6
 *******************************************************************************
   ATOM N.AT.  SHELL    X(A)      Y(A)      Z(A)      EXAD       N.ELECT.
 *******************************************************************************
    1  282 PB    4     1.331    -0.077     1.178   1.934E-01       2.891
    2  282 PB    4    -1.331     0.077    -1.178   1.934E-01       2.891
    3  282 PB    4     1.331    -2.688    -1.178   1.934E-01       2.891
    4  282 PB    4    -1.331     2.688     1.178   1.934E-01       2.891
    5    8 O     5    -0.786     0.522     1.178   6.500E-01       9.109
    6    8 O     5     0.786    -0.522    -1.178   6.500E-01       9.109
    7    8 O     5    -0.786     2.243    -1.178   6.500E-01       9.109
    8    8 O     5     0.786    -2.243     1.178   6.500E-01       9.109
 *******************************************************************************
 DE(K)                   0.000E+00  ENERGY LEVEL SHIFTING        1.60000
 TOTAL ENERGY -3.1500605022568E+02  CONVERGENCE ON ENER       -1.798E-09
 KIN. ENERGY   3.0370227376467E+02  VIR. COEFF.           1.04630548E+00
 N. OF SCF CYCLES                3  FERMI ENERGY              -0.333E+01
 WEIGHT OF F(I) IN F(I+1)      60
 SHRINK. FACT.(MONKH.)     8  8  8  SHRINKING FACTOR(GILAT NET)        8
 NUMBER OF K POINTS IN THE IBZ 125  CELL VOLUME (A.U.)        1037.75287
 *******************************************************************************

 GCALCO - MAX INDICES DIRECT LATTICE VECTOR    13    14    17
 NO.OF VECTORS CREATED 6999 STARS 1051 RMAX   120.16694 BOHR

 DIMENSIONS  P(G)=  104524 F(G)=   52656 P(G),F(G) (IRR)    9494
 MAX G-VECTOR INDEX FOR 1- AND 2-ELECTRON INTEGRALS  73


 CAPPA:IS1  8;IS2  8;IS3  8; K PTS MONK NET  125; SYMMOPS: K SPACE  8;G SPACE  8

 PLPLPLPLPLPLPLPLPLPLPLPLPLPLPLPLPLPLPLPLPLPLPLPLPLPLPLPLPLPLPLPLPLPLPLPL

  MULTIPOLAR EXPANSION UP TO L=  3
  MULTIPOLE SIGN CONVENTION : ELECTRON CHARGE = +1

 PLPLPLPLPLPLPLPLPLPLPLPLPLPLPLPLPLPLPLPLPLPLPLPLPLPLPLPLPLPLPLPLPLPLPLPL


 MULTIPOLE ANALYSIS BY SHELLS
 L=  0 M=  0  -1.317E+00  1.412E+00  2.795E+00  2.024E-03 -1.317E+00  1.412E+00
               2.795E+00  2.024E-03 -1.317E+00  1.412E+00  2.795E+00  2.024E-03
              -1.317E+00  1.412E+00  2.795E+00  2.024E-03  1.999E+00  2.659E+00
               2.270E+00  2.172E+00  7.430E-03  1.999E+00  2.659E+00  2.270E+00
               2.172E+00  7.430E-03  1.999E+00  2.659E+00  2.270E+00  2.172E+00
               7.430E-03  1.999E+00  2.659E+00  2.270E+00  2.172E+00  7.430E-03
 L=  1 M=  0   0.000E+00  0.000E+00  0.000E+00  0.000E+00  0.000E+00  0.000E+00
               0.000E+00  0.000E+00  0.000E+00  0.000E+00  0.000E+00  0.000E+00
               0.000E+00  0.000E+00  0.000E+00  0.000E+00  0.000E+00  0.000E+00
               0.000E+00  0.000E+00  0.000E+00  0.000E+00  0.000E+00  0.000E+00
               0.000E+00  0.000E+00  0.000E+00  0.000E+00  0.000E+00  0.000E+00
               0.000E+00  0.000E+00  0.000E+00  0.000E+00  0.000E+00  0.000E+00
 L=  1 M=  1  -1.025E-01  6.424E-02  1.048E+00  9.090E-02  1.025E-01 -6.424E-02
              -1.048E+00 -9.090E-02 -1.025E-01  6.424E-02  1.048E+00  9.090E-02
               1.025E-01 -6.424E-02 -1.048E+00 -9.090E-02  6.452E-04 -1.609E-03
              -3.173E-03  1.975E-02  2.698E-02 -6.452E-04  1.609E-03  3.173E-03
              -1.975E-02 -2.698E-02  6.452E-04 -1.609E-03 -3.173E-03  1.975E-02
               2.698E-02 -6.452E-04  1.609E-03  3.173E-03 -1.975E-02 -2.698E-02
 L=  1 M= -1  -6.233E-02  5.153E-02  4.892E-01  5.152E-02  6.233E-02 -5.153E-02
              -4.892E-01 -5.152E-02  6.233E-02 -5.153E-02 -4.892E-01 -5.152E-02
              -6.233E-02  5.153E-02  4.892E-01  5.152E-02  5.143E-04 -6.685E-04
              -5.480E-03 -1.582E-02  2.261E-02 -5.143E-04  6.685E-04  5.480E-03
               1.582E-02 -2.261E-02 -5.143E-04  6.685E-04  5.480E-03  1.582E-02
              -2.261E-02  5.143E-04 -6.685E-04 -5.480E-03 -1.582E-02  2.261E-02
 L=  2 M=  0   4.447E-02 -7.141E-02 -3.508E-01  1.632E-02  4.447E-02 -7.141E-02
              -3.508E-01  1.632E-02  4.447E-02 -7.141E-02 -3.508E-01  1.632E-02
               4.447E-02 -7.141E-02 -3.508E-01  1.632E-02  1.673E-05  4.671E-03
              -2.527E-02 -1.498E-01 -2.517E-03  1.673E-05  4.671E-03 -2.527E-02
              -1.498E-01 -2.517E-03  1.673E-05  4.671E-03 -2.527E-02 -1.498E-01
              -2.517E-03  1.673E-05  4.671E-03 -2.527E-02 -1.498E-01 -2.517E-03
 L=  2 M=  1   0.000E+00  0.000E+00  0.000E+00  0.000E+00  0.000E+00  0.000E+00
               0.000E+00  0.000E+00  0.000E+00  0.000E+00  0.000E+00  0.000E+00
               0.000E+00  0.000E+00  0.000E+00  0.000E+00  0.000E+00  0.000E+00
               0.000E+00  0.000E+00  0.000E+00  0.000E+00  0.000E+00  0.000E+00
               0.000E+00  0.000E+00  0.000E+00  0.000E+00  0.000E+00  0.000E+00
               0.000E+00  0.000E+00  0.000E+00  0.000E+00  0.000E+00  0.000E+00
 L=  2 M= -1   0.000E+00  0.000E+00  0.000E+00  0.000E+00  0.000E+00  0.000E+00
               0.000E+00  0.000E+00  0.000E+00  0.000E+00  0.000E+00  0.000E+00
               0.000E+00  0.000E+00  0.000E+00  0.000E+00  0.000E+00  0.000E+00
               0.000E+00  0.000E+00  0.000E+00  0.000E+00  0.000E+00  0.000E+00
               0.000E+00  0.000E+00  0.000E+00  0.000E+00  0.000E+00  0.000E+00
               0.000E+00  0.000E+00  0.000E+00  0.000E+00  0.000E+00  0.000E+00
 L=  2 M=  2  -5.705E-02  7.208E-02  1.103E+00 -1.309E-01 -5.705E-02  7.208E-02
               1.103E+00 -1.309E-01 -5.705E-02  7.208E-02  1.103E+00 -1.309E-01
              -5.705E-02  7.208E-02  1.103E+00 -1.309E-01 -2.903E-06 -4.464E-03
              -1.028E-02  3.416E-01  4.447E-03 -2.903E-06 -4.464E-03 -1.028E-02
               3.416E-01  4.447E-03 -2.903E-06 -4.464E-03 -1.028E-02  3.416E-01
               4.447E-03 -2.903E-06 -4.464E-03 -1.028E-02  3.416E-01  4.447E-03
 L=  2 M= -2  -5.004E-02  4.487E-02  1.540E+00 -4.920E-02 -5.004E-02  4.487E-02
               1.540E+00 -4.920E-02  5.004E-02 -4.487E-02 -1.540E+00  4.920E-02
               5.004E-02 -4.487E-02 -1.540E+00  4.920E-02  2.829E-04  3.769E-02
              -5.148E-02  9.644E-01 -5.253E-02  2.829E-04  3.769E-02 -5.148E-02
               9.644E-01 -5.253E-02 -2.829E-04 -3.769E-02  5.148E-02 -9.644E-01
               5.253E-02 -2.829E-04 -3.769E-02  5.148E-02 -9.644E-01  5.253E-02

 MULTIPOLE ANALYSIS BY ATOMS (L=0: NET CHARGE)
 L=  0 M=  0  -1.109E+00 -1.109E+00 -1.109E+00 -1.109E+00  1.109E+00  1.109E+00
               1.109E+00  1.109E+00
 L=  1 M=  0   0.000E+00  0.000E+00  0.000E+00  0.000E+00  0.000E+00  0.000E+00
               0.000E+00  0.000E+00
 L=  1 M=  1   1.100E+00 -1.100E+00  1.100E+00 -1.100E+00  4.260E-02 -4.260E-02
               4.260E-02 -4.260E-02
 L=  1 M= -1   5.300E-01 -5.300E-01 -5.300E-01  5.300E-01  1.159E-03 -1.159E-03
              -1.159E-03  1.159E-03
 L=  2 M=  0  -3.614E-01 -3.614E-01 -3.614E-01 -3.614E-01 -1.729E-01 -1.729E-01
              -1.729E-01 -1.729E-01
 L=  2 M=  1   0.000E+00  0.000E+00  0.000E+00  0.000E+00  0.000E+00  0.000E+00
               0.000E+00  0.000E+00
 L=  2 M= -1   0.000E+00  0.000E+00  0.000E+00  0.000E+00  0.000E+00  0.000E+00
               0.000E+00  0.000E+00
 L=  2 M=  2   9.868E-01  9.868E-01  9.868E-01  9.868E-01  3.313E-01  3.313E-01
               3.313E-01  3.313E-01
 L=  2 M= -2   1.486E+00  1.486E+00 -1.486E+00 -1.486E+00  8.984E-01  8.984E-01
              -8.984E-01 -8.984E-01

 NET ATOMIC CHARGE AND SPHEROPOLE (A.U.)
 ATOM N.          Q           QR2       ATOM N.          Q           QR2
     1   282 -1.10854E+00  2.05976E+01     2   282 -1.10854E+00  2.05976E+01
     3   282 -1.10854E+00  2.05976E+01     4   282 -1.10854E+00  2.05976E+01
     5     8  1.10854E+00  1.55433E+01     6     8  1.10854E+00  1.55433E+01
     7     8  1.10854E+00  1.55433E+01     8     8  1.10854E+00  1.55433E+01

 DEFINITION OF TRACELESS QUADRUPOLE TENSORS:

 (3XX-RR)/2=(2,2)/4-(2,0)/2
 (3YY-RR)/2=-(2,2)/4-(2,0)/2
 (3ZZ-RR)/2=(2,0)
 3XY/2=(2,-2)/4     3XZ/2=(2,1)/2     3YZ/2=(2,-1)/2

 *** ATOM N.     1 (Z=282) PB

 TENSOR IN PRINCIPAL AXIS SYSTEM
 AA  6.265724E-01 BB -2.651563E-01 CC -3.614161E-01

 *** ATOM N.     2 (Z=282) PB

 TENSOR IN PRINCIPAL AXIS SYSTEM
 AA  6.265724E-01 BB -2.651563E-01 CC -3.614161E-01

 *** ATOM N.     3 (Z=282) PB

 TENSOR IN PRINCIPAL AXIS SYSTEM
 AA  6.265724E-01 BB -2.651563E-01 CC -3.614161E-01

 *** ATOM N.     4 (Z=282) PB

 TENSOR IN PRINCIPAL AXIS SYSTEM
 AA  6.265724E-01 BB -2.651563E-01 CC -3.614161E-01

 *** ATOM N.     5 (Z=  8) O 

 TENSOR IN PRINCIPAL AXIS SYSTEM
 AA  3.258167E-01 BB -1.529525E-01 CC -1.728642E-01

 *** ATOM N.     6 (Z=  8) O 

 TENSOR IN PRINCIPAL AXIS SYSTEM
 AA  3.258167E-01 BB -1.529525E-01 CC -1.728642E-01

 *** ATOM N.     7 (Z=  8) O 

 TENSOR IN PRINCIPAL AXIS SYSTEM
 AA  3.258167E-01 BB -1.529525E-01 CC -1.728642E-01

 *** ATOM N.     8 (Z=  8) O 

 TENSOR IN PRINCIPAL AXIS SYSTEM
 AA  3.258167E-01 BB -1.529525E-01 CC -1.728642E-01
 TTTTTTTTTTTTTTTTTTTTTTTTTTTTTT POLI        TELAPSE        0.05 TCPU        0.04
 ERROR **** F90MAIN3 **** KEYWORD POLIPRT    NOT ALLOWED
 TTTTTTTTTTTTTTTTTTTTTTTTTTTTTT ERR         TELAPSE        0.05 TCPU        0.04
Fri Feb 11 14:21:56 GMT 2011
Contents of temporary directory:
total 4200
-rw-r--r--  1 pieremanuelecanepa  staff     171 Feb 11 14:21 ERROR
-rw-r--r--  1 pieremanuelecanepa  staff  421256 Feb 11 14:21 fort.11
-rw-r--r--  1 pieremanuelecanepa  staff  836200 Feb 11 14:21 fort.13
-rw-r--r--  1 pieremanuelecanepa  staff  421256 Feb 11 14:21 fort.3
-rwxr-xr-x  1 pieremanuelecanepa  staff  461148 Feb 11 14:21 fort.9
temporary directory /Users/pieremanuelecanepa/CRYSTAL09_tmp/tmp2027_pieremanuelecanepa removed
