 Entering Link 1 = /home/ugliengo/g98a11/l1.exe PID=      4871.
  
 Copyright (c) 1988,1990,1992,1993,1995,1998 Gaussian, Inc.
                  All Rights Reserved.
  
 This is part of the Gaussian(R) 98 program.  It is based on
 the Gaussian 94(TM) system (copyright 1995 Gaussian, Inc.),
 the Gaussian 92(TM) system (copyright 1992 Gaussian, Inc.),
 the Gaussian 90(TM) system (copyright 1990 Gaussian, Inc.),
 the Gaussian 88(TM) system (copyright 1988 Gaussian, Inc.),
 the Gaussian 86(TM) system (copyright 1986 Carnegie Mellon
 University), and the Gaussian 82(TM) system (copyright 1983
 Carnegie Mellon University). Gaussian is a federally registered
 trademark of Gaussian, Inc.
  
 This software contains proprietary and confidential information,
 including trade secrets, belonging to Gaussian, Inc.
  
 This software is provided under written license and may be
 used, copied, transmitted, or stored only in accord with that
 written license.
  
 The following legend is applicable only to US Government
 contracts under DFARS:
  
                    RESTRICTED RIGHTS LEGEND
  
 Use, duplication or disclosure by the US Government is subject
 to restrictions as set forth in subparagraph (c)(1)(ii) of the
 Rights in Technical Data and Computer Software clause at DFARS
 252.227-7013.
  
 Gaussian, Inc.
 Carnegie Office Park, Building 6, Pittsburgh, PA 15106 USA
  
 The following legend is applicable only to US Government
 contracts under FAR:
  
                    RESTRICTED RIGHTS LEGEND
  
 Use, reproduction and disclosure by the US Government is subject
 to restrictions as set forth in subparagraph (c) of the
 Commercial Computer Software - Restricted Rights clause at FAR
 52.227-19.
  
 Gaussian, Inc.
 Carnegie Office Park, Building 6, Pittsburgh, PA 15106 USA
  
  
 ---------------------------------------------------------------
 Warning -- This program may not be used in any manner that
 competes with the business of Gaussian, Inc. or will provide
 assistance to any competitor of Gaussian, Inc.  The licensee
 of this program is prohibited from giving any competitor of
 Gaussian, Inc. access to this program.  By using this program,
 the user acknowledges that Gaussian, Inc. is engaged in the
 business of creating and licensing software in the field of
 computational chemistry and represents and warrants to the
 licensee that it is not a competitor of Gaussian, Inc. and that
 it will not use this program in any manner prohibited above.
 ---------------------------------------------------------------
  

 Cite this work as:
 Gaussian 98, Revision A.11,
 M. J. Frisch, G. W. Trucks, H. B. Schlegel, G. E. Scuseria, 
 M. A. Robb, J. R. Cheeseman, V. G. Zakrzewski, J. A. Montgomery, Jr., 
 R. E. Stratmann, J. C. Burant, S. Dapprich, J. M. Millam, 
 A. D. Daniels, K. N. Kudin, M. C. Strain, O. Farkas, J. Tomasi, 
 V. Barone, M. Cossi, R. Cammi, B. Mennucci, C. Pomelli, C. Adamo, 
 S. Clifford, J. Ochterski, G. A. Petersson, P. Y. Ayala, Q. Cui, 
 K. Morokuma, P. Salvador, J. J. Dannenberg, D. K. Malick, 
 A. D. Rabuck, K. Raghavachari, J. B. Foresman, J. Cioslowski, 
 J. V. Ortiz, A. G. Baboul, B. B. Stefanov, G. Liu, A. Liashenko, 
 P. Piskorz, I. Komaromi, R. Gomperts, R. L. Martin, D. J. Fox, 
 T. Keith, M. A. Al-Laham, C. Y. Peng, A. Nanayakkara, M. Challacombe, 
 P. M. W. Gill, B. Johnson, W. Chen, M. W. Wong, J. L. Andres, 
 C. Gonzalez, M. Head-Gordon, E. S. Replogle, and J. A. Pople, 
 Gaussian, Inc., Pittsburgh PA, 2001.

 **********************************************
 Gaussian 98:  x86-Linux-G98RevA.11 25-Sep-2001
                  11-Mar-2005 
 **********************************************
 %chk=caoh_c6_h2o.chk
 %mem= 128MB
 ----------------------------------------------------------------------
 #P TEST OPT FREQ B3LYP/6-31+G(d,p) 5D SCF=DIRECT GEOM=(PrintInputOrien
 t,NODISTANCE,NOANGLE,NODIHEDRAL)
 ----------------------------------------------------------------------
 1/14=-1,18=20,26=3,38=1/1,3;
 2/9=2111,17=6,18=5,40=1/2;
 3/5=1,6=6,7=111,8=1,11=2,25=1,30=1/1,2,3;
 4//1;
 5/5=2,38=4,42=-5/2;
 6/7=2,8=2,9=2,10=2,28=1/1;
 7//1,2,3,16;
 1/14=-1,18=20/3(1);
 99//99;
 2/9=2111/2;
 3/5=1,6=6,7=111,8=1,11=2,25=1,30=1/1,2,3;
 4/5=5,16=2/1;
 5/5=2,38=4,42=-5/2;
 7//1,2,3,16;
 1/14=-1,18=20/3(-5);
 2/9=2111/2;
 6/7=2,8=2,9=2,10=2,19=2,28=1/1;
 99/9=1/99;
 Leave Link    1 at Fri Mar 11 12:04:18 2005, MaxMem=   16777216 cpu:       0.1
 (Enter /home/ugliengo/g98a11/l101.exe)
 --------------------------------
 Input made by MOLDRAW 11/03/2005
 --------------------------------
 Symbolic Z-matrix:
 Charge =  0 Multiplicity = 1
 CA                   0     0.13147   2.41461   0.76791 
 O                    0     1.37767   2.30057  -1.3213 
 O                    0    -1.93287   1.96992   0.23402 
 O                    0     1.254     1.19299   2.17897 
 SI                   0     1.50334   0.78524  -2.13332 
 SI                   0    -2.80141   0.6463   -0.00818 
 SI                   0     1.35441  -0.36681   2.52788 
 H                    0     1.92751  -0.68026   3.84807 
 H                    0    -4.26085   0.82862   0.07196 
 H                    0     2.302     1.04914  -3.33833 
 O                    0     2.24224  -0.21558  -1.10054 
 O                    0    -0.01096   0.33281  -2.47538 
 O                    0    -2.39279  -0.55924   1.06941 
 O                    0    -0.13675  -1.10927   2.44616 
 O                    0     2.32057  -1.18152   1.41064 
 O                    0    -2.51067  -0.00436  -1.53712 
 SI                   0     2.46044  -1.58004  -0.15491 
 SI                   0    -1.36789  -0.64788  -2.49076 
 O                    0     1.33979  -2.6854   -0.62808 
 O                    0    -0.89579  -2.14115  -1.99203 
 SI                   0    -0.25566  -3.07926  -0.7929 
 O                    0    -1.05557  -2.83918   0.61402 
 SI                   0    -1.48982  -1.72694   1.76994 
 H                    0    -1.83928  -0.73199  -3.87604 
 H                    0     3.79977  -2.10497  -0.43581 
 H                    0    -0.35458  -4.48534  -1.19192 
 H                    0    -2.2821   -2.42188   2.79062 
 H                    0     1.82145   3.01657  -1.79381 
 O                    0    -0.93229   4.47134   0.87553 
 H                    0    -1.83988   4.13245   0.62779 
 H                    0    -0.89996   5.46614   0.97182 
 Leave Link  101 at Fri Mar 11 12:04:18 2005, MaxMem=   16777216 cpu:       0.0
 (Enter /home/ugliengo/g98a11/l103.exe)

 GradGradGradGradGradGradGradGradGradGradGradGradGradGradGradGradGradGrad
 Berny optimization.
 Initialization pass.
                         ----------------------------
                         !    Initial Parameters    !
                         ! (Angstroms and Degrees)  !
 ------------------------                            -------------------------
 ! Name  Definition              Value          Derivative Info.             !
 -----------------------------------------------------------------------------
 ! R1    R(1,2)                  2.4353         estimate D2E/DX2             !
 ! R2    R(1,3)                  2.1781         estimate D2E/DX2             !
 ! R3    R(1,4)                  2.178          estimate D2E/DX2             !
 ! R4    R(1,29)                 2.318          estimate D2E/DX2             !
 ! R5    R(1,30)                 2.6186         estimate D2E/DX2             !
 ! R6    R(2,5)                  1.7238         estimate D2E/DX2             !
 ! R7    R(2,28)                 0.9658         estimate D2E/DX2             !
 ! R8    R(3,6)                  1.6016         estimate D2E/DX2             !
 ! R9    R(4,7)                  1.6015         estimate D2E/DX2             !
 ! R10   R(5,10)                 1.4695         estimate D2E/DX2             !
 ! R11   R(5,11)                 1.6169         estimate D2E/DX2             !
 ! R12   R(5,12)                 1.617          estimate D2E/DX2             !
 ! R13   R(6,9)                  1.473          estimate D2E/DX2             !
 ! R14   R(6,13)                 1.6678         estimate D2E/DX2             !
 ! R15   R(6,16)                 1.6869         estimate D2E/DX2             !
 ! R16   R(7,8)                  1.473          estimate D2E/DX2             !
 ! R17   R(7,14)                 1.6678         estimate D2E/DX2             !
 ! R18   R(7,15)                 1.6868         estimate D2E/DX2             !
 ! R19   R(11,17)                1.6744         estimate D2E/DX2             !
 ! R20   R(12,18)                1.6743         estimate D2E/DX2             !
 ! R21   R(13,23)                1.6339         estimate D2E/DX2             !
 ! R22   R(14,23)                1.6339         estimate D2E/DX2             !
 ! R23   R(15,17)                1.6215         estimate D2E/DX2             !
 ! R24   R(16,18)                1.6216         estimate D2E/DX2             !
 ! R25   R(17,19)                1.6436         estimate D2E/DX2             !
 ! R26   R(17,25)                1.4657         estimate D2E/DX2             !
 ! R27   R(18,20)                1.6436         estimate D2E/DX2             !
 ! R28   R(18,24)                1.4657         estimate D2E/DX2             !
 ! R29   R(19,21)                1.6516         estimate D2E/DX2             !
 ! R30   R(20,21)                1.6516         estimate D2E/DX2             !
 ! R31   R(21,22)                1.6361         estimate D2E/DX2             !
 ! R32   R(21,26)                1.4649         estimate D2E/DX2             !
 ! R33   R(22,23)                1.6619         estimate D2E/DX2             !
 ! R34   R(23,27)                1.4671         estimate D2E/DX2             !
 ! R35   R(29,30)                1.             estimate D2E/DX2             !
 ! R36   R(29,31)                1.             estimate D2E/DX2             !
 ! A1    A(2,1,3)              105.3757         estimate D2E/DX2             !
 ! A2    A(2,1,4)              105.4144         estimate D2E/DX2             !
 ! A3    A(2,1,29)             108.4338         estimate D2E/DX2             !
 ! A4    A(2,1,30)             111.7192         estimate D2E/DX2             !
 ! A5    A(3,1,4)              122.1924         estimate D2E/DX2             !
 ! A6    A(3,1,29)              75.9716         estimate D2E/DX2             !
 ! A7    A(3,1,30)              53.6521         estimate D2E/DX2             !
 ! A8    A(4,1,29)             134.7578         estimate D2E/DX2             !
 ! A9    A(4,1,30)             142.246          estimate D2E/DX2             !
 ! A10   A(1,2,5)              118.855          estimate D2E/DX2             !
 ! A11   A(1,2,28)             128.3235         estimate D2E/DX2             !
 ! A12   A(5,2,28)             112.8122         estimate D2E/DX2             !
 ! A13   A(1,3,6)              136.0359         estimate D2E/DX2             !
 ! A14   A(1,4,7)              136.0344         estimate D2E/DX2             !
 ! A15   A(2,5,10)             105.5475         estimate D2E/DX2             !
 ! A16   A(2,5,11)             106.0548         estimate D2E/DX2             !
 ! A17   A(2,5,12)             106.1012         estimate D2E/DX2             !
 ! A18   A(10,5,11)            112.7403         estimate D2E/DX2             !
 ! A19   A(10,5,12)            112.6895         estimate D2E/DX2             !
 ! A20   A(11,5,12)            112.948          estimate D2E/DX2             !
 ! A21   A(3,6,9)              115.2651         estimate D2E/DX2             !
 ! A22   A(3,6,13)             111.5192         estimate D2E/DX2             !
 ! A23   A(3,6,16)             111.2465         estimate D2E/DX2             !
 ! A24   A(9,6,13)             107.2816         estimate D2E/DX2             !
 ! A25   A(9,6,16)             105.5353         estimate D2E/DX2             !
 ! A26   A(13,6,16)            105.3424         estimate D2E/DX2             !
 ! A27   A(4,7,8)              115.2723         estimate D2E/DX2             !
 ! A28   A(4,7,14)             111.522          estimate D2E/DX2             !
 ! A29   A(4,7,15)             111.2243         estimate D2E/DX2             !
 ! A30   A(8,7,14)             107.2809         estimate D2E/DX2             !
 ! A31   A(8,7,15)             105.5457         estimate D2E/DX2             !
 ! A32   A(14,7,15)            105.3456         estimate D2E/DX2             !
 ! A33   A(5,11,17)            157.6248         estimate D2E/DX2             !
 ! A34   A(5,12,18)            157.6359         estimate D2E/DX2             !
 ! A35   A(6,13,23)            158.2822         estimate D2E/DX2             !
 ! A36   A(7,14,23)            158.2798         estimate D2E/DX2             !
 ! A37   A(7,15,17)            143.8595         estimate D2E/DX2             !
 ! A38   A(6,16,18)            143.8594         estimate D2E/DX2             !
 ! A39   A(11,17,15)           109.4966         estimate D2E/DX2             !
 ! A40   A(11,17,19)           107.2529         estimate D2E/DX2             !
 ! A41   A(11,17,25)           107.6193         estimate D2E/DX2             !
 ! A42   A(15,17,19)           112.6073         estimate D2E/DX2             !
 ! A43   A(15,17,25)           110.6021         estimate D2E/DX2             !
 ! A44   A(19,17,25)           109.087          estimate D2E/DX2             !
 ! A45   A(12,18,16)           109.4694         estimate D2E/DX2             !
 ! A46   A(12,18,20)           107.2527         estimate D2E/DX2             !
 ! A47   A(12,18,24)           107.6346         estimate D2E/DX2             !
 ! A48   A(16,18,20)           112.6142         estimate D2E/DX2             !
 ! A49   A(16,18,24)           110.6065         estimate D2E/DX2             !
 ! A50   A(20,18,24)           109.0882         estimate D2E/DX2             !
 ! A51   A(17,19,21)           147.9661         estimate D2E/DX2             !
 ! A52   A(18,20,21)           147.9607         estimate D2E/DX2             !
 ! A53   A(19,21,20)           108.1441         estimate D2E/DX2             !
 ! A54   A(19,21,22)           110.5778         estimate D2E/DX2             !
 ! A55   A(19,21,26)           108.7413         estimate D2E/DX2             !
 ! A56   A(20,21,22)           110.5792         estimate D2E/DX2             !
 ! A57   A(20,21,26)           108.7385         estimate D2E/DX2             !
 ! A58   A(22,21,26)           110.0018         estimate D2E/DX2             !
 ! A59   A(21,22,23)           145.4941         estimate D2E/DX2             !
 ! A60   A(13,23,14)           111.4039         estimate D2E/DX2             !
 ! A61   A(13,23,22)           108.9355         estimate D2E/DX2             !
 ! A62   A(13,23,27)           109.777          estimate D2E/DX2             !
 ! A63   A(14,23,22)           108.9346         estimate D2E/DX2             !
 ! A64   A(14,23,27)           109.776          estimate D2E/DX2             !
 ! A65   A(22,23,27)           107.938          estimate D2E/DX2             !
 ! A66   A(1,29,31)            150.7289         estimate D2E/DX2             !
 ! A67   A(30,29,31)           112.976          estimate D2E/DX2             !
 ! D1    D(3,1,2,5)            -65.2315         estimate D2E/DX2             !
 ! D2    D(3,1,2,28)           113.571          estimate D2E/DX2             !
 ! D3    D(4,1,2,5)             65.2329         estimate D2E/DX2             !
 ! D4    D(4,1,2,28)          -115.9646         estimate D2E/DX2             !
 ! D5    D(29,1,2,5)          -145.2494         estimate D2E/DX2             !
 ! D6    D(29,1,2,28)           33.5531         estimate D2E/DX2             !
 ! D7    D(30,1,2,5)          -121.7189         estimate D2E/DX2             !
 ! D8    D(30,1,2,28)           57.0836         estimate D2E/DX2             !
 ! D9    D(2,1,3,6)             82.9829         estimate D2E/DX2             !
 ! D10   D(4,1,3,6)            -36.9418         estimate D2E/DX2             !
 ! D11   D(29,1,3,6)          -171.3933         estimate D2E/DX2             !
 ! D12   D(30,1,3,6)          -171.1056         estimate D2E/DX2             !
 ! D13   D(2,1,4,7)            -82.9533         estimate D2E/DX2             !
 ! D14   D(3,1,4,7)             36.9529         estimate D2E/DX2             !
 ! D15   D(29,1,4,7)           139.7126         estimate D2E/DX2             !
 ! D16   D(30,1,4,7)           107.6289         estimate D2E/DX2             !
 ! D17   D(2,1,29,31)          -69.4027         estimate D2E/DX2             !
 ! D18   D(3,1,29,31)         -171.2205         estimate D2E/DX2             !
 ! D19   D(4,1,29,31)           67.0715         estimate D2E/DX2             !
 ! D20   D(1,2,5,10)           179.9831         estimate D2E/DX2             !
 ! D21   D(1,2,5,11)           -60.1765         estimate D2E/DX2             !
 ! D22   D(1,2,5,12)            60.1785         estimate D2E/DX2             !
 ! D23   D(28,2,5,10)            1.0022         estimate D2E/DX2             !
 ! D24   D(28,2,5,11)          120.8427         estimate D2E/DX2             !
 ! D25   D(28,2,5,12)         -118.8024         estimate D2E/DX2             !
 ! D26   D(1,3,6,9)            160.8998         estimate D2E/DX2             !
 ! D27   D(1,3,6,13)            38.271          estimate D2E/DX2             !
 ! D28   D(1,3,6,16)           -79.0168         estimate D2E/DX2             !
 ! D29   D(1,4,7,8)           -160.9231         estimate D2E/DX2             !
 ! D30   D(1,4,7,14)           -38.2875         estimate D2E/DX2             !
 ! D31   D(1,4,7,15)            78.9918         estimate D2E/DX2             !
 ! D32   D(2,5,11,17)          123.9077         estimate D2E/DX2             !
 ! D33   D(10,5,11,17)        -121.0654         estimate D2E/DX2             !
 ! D34   D(12,5,11,17)           8.1071         estimate D2E/DX2             !
 ! D35   D(2,5,12,18)         -123.8589         estimate D2E/DX2             !
 ! D36   D(10,5,12,18)         121.1127         estimate D2E/DX2             !
 ! D37   D(11,5,12,18)          -8.086          estimate D2E/DX2             !
 ! D38   D(3,6,13,23)          -70.5412         estimate D2E/DX2             !
 ! D39   D(9,6,13,23)          162.3631         estimate D2E/DX2             !
 ! D40   D(16,6,13,23)          50.2633         estimate D2E/DX2             !
 ! D41   D(3,6,16,18)           62.0164         estimate D2E/DX2             !
 ! D42   D(9,6,16,18)         -172.2948         estimate D2E/DX2             !
 ! D43   D(13,6,16,18)         -58.9665         estimate D2E/DX2             !
 ! D44   D(4,7,14,23)           70.538          estimate D2E/DX2             !
 ! D45   D(8,7,14,23)         -162.3558         estimate D2E/DX2             !
 ! D46   D(15,7,14,23)         -50.2432         estimate D2E/DX2             !
 ! D47   D(4,7,15,17)          -62.0214         estimate D2E/DX2             !
 ! D48   D(8,7,15,17)          172.2877         estimate D2E/DX2             !
 ! D49   D(14,7,15,17)          58.9546         estimate D2E/DX2             !
 ! D50   D(5,11,17,15)        -108.9496         estimate D2E/DX2             !
 ! D51   D(5,11,17,19)          13.5276         estimate D2E/DX2             !
 ! D52   D(5,11,17,25)         130.779          estimate D2E/DX2             !
 ! D53   D(5,12,18,16)         108.9153         estimate D2E/DX2             !
 ! D54   D(5,12,18,20)         -13.554          estimate D2E/DX2             !
 ! D55   D(5,12,18,24)        -130.8145         estimate D2E/DX2             !
 ! D56   D(6,13,23,14)          65.6613         estimate D2E/DX2             !
 ! D57   D(6,13,23,22)         -54.5335         estimate D2E/DX2             !
 ! D58   D(6,13,23,27)        -172.5271         estimate D2E/DX2             !
 ! D59   D(7,14,23,13)         -65.651          estimate D2E/DX2             !
 ! D60   D(7,14,23,22)          54.5443         estimate D2E/DX2             !
 ! D61   D(7,14,23,27)         172.5368         estimate D2E/DX2             !
 ! D62   D(7,15,17,11)          49.1432         estimate D2E/DX2             !
 ! D63   D(7,15,17,19)         -70.0824         estimate D2E/DX2             !
 ! D64   D(7,15,17,25)         167.5765         estimate D2E/DX2             !
 ! D65   D(6,16,18,12)         -49.1447         estimate D2E/DX2             !
 ! D66   D(6,16,18,20)          70.0666         estimate D2E/DX2             !
 ! D67   D(6,16,18,24)        -167.5826         estimate D2E/DX2             !
 ! D68   D(11,17,19,21)        -61.8039         estimate D2E/DX2             !
 ! D69   D(15,17,19,21)         58.7192         estimate D2E/DX2             !
 ! D70   D(25,17,19,21)       -178.09           estimate D2E/DX2             !
 ! D71   D(12,18,20,21)         61.7895         estimate D2E/DX2             !
 ! D72   D(16,18,20,21)        -58.7039         estimate D2E/DX2             !
 ! D73   D(24,18,20,21)        178.0942         estimate D2E/DX2             !
 ! D74   D(17,19,21,20)         69.9622         estimate D2E/DX2             !
 ! D75   D(17,19,21,22)        -51.2451         estimate D2E/DX2             !
 ! D76   D(17,19,21,26)       -172.1221         estimate D2E/DX2             !
 ! D77   D(18,20,21,19)        -69.9438         estimate D2E/DX2             !
 ! D78   D(18,20,21,22)         51.2626         estimate D2E/DX2             !
 ! D79   D(18,20,21,26)        172.1387         estimate D2E/DX2             !
 ! D80   D(19,21,22,23)         59.867          estimate D2E/DX2             !
 ! D81   D(20,21,22,23)        -59.8863         estimate D2E/DX2             !
 ! D82   D(26,21,22,23)        179.9917         estimate D2E/DX2             !
 ! D83   D(21,22,23,13)         60.846          estimate D2E/DX2             !
 ! D84   D(21,22,23,14)        -60.8614         estimate D2E/DX2             !
 ! D85   D(21,22,23,27)        179.9932         estimate D2E/DX2             !
 -----------------------------------------------------------------------------
 Trust Radius=3.00D-01 FncErr=1.00D-07 GrdErr=1.00D-06
 Number of steps in this run= 186 maximum allowed number of steps= 186.
 GradGradGradGradGradGradGradGradGradGradGradGradGradGradGradGradGradGrad

 Leave Link  103 at Fri Mar 11 12:04:18 2005, MaxMem=   16777216 cpu:       0.0
 (Enter /home/ugliengo/g98a11/l202.exe)
                          Input orientation:                          
 ---------------------------------------------------------------------
 Center     Atomic     Atomic              Coordinates (Angstroms)
 Number     Number      Type              X           Y           Z
 ---------------------------------------------------------------------
    1         20             0        0.131473    2.414614    0.767906
    2          8             0        1.377667    2.300574   -1.321295
    3          8             0       -1.932872    1.969918    0.234018
    4          8             0        1.254005    1.192992    2.178975
    5         14             0        1.503336    0.785243   -2.133322
    6         14             0       -2.801411    0.646302   -0.008183
    7         14             0        1.354410   -0.366811    2.527877
    8          1             0        1.927508   -0.680259    3.848070
    9          1             0       -4.260849    0.828617    0.071965
   10          1             0        2.302002    1.049136   -3.338330
   11          8             0        2.242243   -0.215584   -1.100545
   12          8             0       -0.010964    0.332813   -2.475384
   13          8             0       -2.392793   -0.559236    1.069412
   14          8             0       -0.136748   -1.109268    2.446163
   15          8             0        2.320566   -1.181521    1.410638
   16          8             0       -2.510670   -0.004361   -1.537120
   17         14             0        2.460437   -1.580044   -0.154908
   18         14             0       -1.367886   -0.647879   -2.490760
   19          8             0        1.339789   -2.685401   -0.628080
   20          8             0       -0.895787   -2.141149   -1.992034
   21         14             0       -0.255664   -3.079259   -0.792899
   22          8             0       -1.055571   -2.839185    0.614019
   23         14             0       -1.489820   -1.726936    1.769940
   24          1             0       -1.839277   -0.731992   -3.876044
   25          1             0        3.799768   -2.104969   -0.435806
   26          1             0       -0.354577   -4.485336   -1.191921
   27          1             0       -2.282097   -2.421877    2.790617
   28          1             0        1.821453    3.016569   -1.793809
   29          8             0       -0.932289    4.471340    0.875528
   30          1             0       -1.839877    4.132451    0.627792
   31          1             0       -0.899961    5.466143    0.971821
 ---------------------------------------------------------------------
 Stoichiometry    CaH10O13Si7
 Framework group  C1[X(CaH10O13Si7)]
 Deg. of freedom   87
 Full point group                 C1      NOp   1
 Largest Abelian subgroup         C1      NOp   1
 Largest concise Abelian subgroup C1      NOp   1
                         Standard orientation:                         
 ---------------------------------------------------------------------
 Center     Atomic     Atomic              Coordinates (Angstroms)
 Number     Number      Type              X           Y           Z
 ---------------------------------------------------------------------
    1         20             0       -2.560806   -0.834099   -0.077452
    2          8             0       -1.974088   -0.820593    2.286093
    3          8             0       -2.438577    1.245140   -0.714739
    4          8             0       -1.332287   -2.395413   -0.969971
    5         14             0       -0.375441   -0.366456    2.743802
    6         14             0       -1.275716    2.238992   -1.189073
    7         14             0        0.166931   -2.508320   -1.521691
    8          1             0        0.419897   -3.641814   -2.427671
    9          1             0       -1.728621    3.427145   -1.932574
   10          1             0       -0.344293   -0.458839    4.210106
   11          8             0        0.612846   -1.428229    2.029523
   12          8             0       -0.168478    1.145676    2.209549
   13          8             0       -0.153015    1.456309   -2.142199
   14          8             0        0.630194   -1.120838   -2.322788
   15          8             0        1.270900   -2.684149   -0.258453
   16          8             0       -0.405675    2.834528    0.127706
   17         14             0        1.871753   -1.965453    1.065091
   18         14             0        0.543834    2.407676    1.370980
   19          8             0        2.803231   -0.659405    0.707115
   20          8             0        2.027863    1.894281    0.885652
   21         14             0        2.917159    0.825856   -0.006175
   22          8             0        2.369824    0.767366   -1.546923
   23         14             0        1.067555    0.440235   -2.526159
   24          1             0        0.705169    3.526034    2.304544
   25          1             0        2.661139   -2.915290    1.854355
   26          1             0        4.319142    1.250326    0.011774
   27          1             0        1.480259    0.663051   -3.916287
   28          1             0       -2.535992   -1.027715    3.043872
   29          8             0       -4.774618   -0.179524   -0.286884
   30          1             0       -4.579380    0.755145   -0.583890
   31          1             0       -5.751222   -0.352666   -0.159535
 ---------------------------------------------------------------------
 Rotational constants (GHZ):      0.2143823      0.1826862      0.1742193
 Isotopes: Ca-40,O-16,O-16,O-16,Si-28,Si-28,Si-28,H-1,H-1,H-1,O-16,O-16,O-16,O-16
 ,O-16,O-16,Si-28,Si-28,O-16,O-16,Si-28,O-16,Si-28,H-1,H-1,H-1,H-1,H-1,O-16,H-1,H
 -1
 Leave Link  202 at Fri Mar 11 12:04:18 2005, MaxMem=   16777216 cpu:       0.0
 (Enter /home/ugliengo/g98a11/l301.exe)
 Standard basis: 6-31+G(d,p) (5D, 7F)
 There are   464 symmetry adapted basis functions of A   symmetry.
 Crude estimate of integral set expansion from redundant integrals=1.000.
 Integral buffers will be    262144 words long.
 Raffenetti 2 integral format.
 Two-electron integral symmetry is turned on.
   464 basis functions      958 primitive gaussians
   116 alpha electrons      116 beta electrons
       nuclear repulsion energy      3765.0476494306 Hartrees.
 Leave Link  301 at Fri Mar 11 12:04:18 2005, MaxMem=   16777216 cpu:       0.0
 (Enter /home/ugliengo/g98a11/l302.exe)
 One-electron integrals computed using PRISM.
 NBasis=   464 RedAO= T  NBF=   464
 NBsUse=   464 1.00D-04 NBFU=   464
 Leave Link  302 at Fri Mar 11 12:04:25 2005, MaxMem=   16777216 cpu:       2.9
 (Enter /home/ugliengo/g98a11/l303.exe)
 DipDrv:  MaxL=1.
 Leave Link  303 at Fri Mar 11 12:04:25 2005, MaxMem=   16777216 cpu:       0.4
 (Enter /home/ugliengo/g98a11/l401.exe)
 Projected Huckel Guess.
 Leave Link  401 at Fri Mar 11 12:04:33 2005, MaxMem=   16777216 cpu:       4.5
 (Enter /home/ugliengo/g98a11/l502.exe)
 IExCor= 402 DFT=T Ex=B+HF Corr=LYP ScaHFX= 0.2000
 ScaDFX=  0.8000  0.7200  1.0000  0.8100
 IRadAn=      0 IRanWt=     -1 IRanGd=            0 ICorTp=0
 Using DIIS extrapolation.
 Closed shell SCF:
 Requested convergence on RMS density matrix=1.00D-08 within  64 cycles.
 Requested convergence on MAX density matrix=1.00D-06.
 Integral symmetry usage will be decided dynamically.
 IEnd=    773090 IEndB=    773090 NGot=  16777216 MDV=  16244061
 LenX=  16244061
 Fock matrices will be formed incrementally for  20 cycles.

 Cycle   1  Pass 1  IDiag 1:
 Petite list used in FoFDir.
 MinBra= 0 MaxBra= 2 Meth= 1.
 IRaf=       0 NMat=   1 IRICut=       1 DoRegI=T DoRafI=F ISym2E= 1 JSym2E=1.
 E=-0.741469440544635D+04
 DIIS: error= 6.65D-01 at cycle   1.
 T= 3000. Gap= 0.007 NK=0 IS=    1 IE=  464
          NO(<0.9)=   4  NV(>0.1)=   4 114.76e < EF 1.24e >EF  Err=9.3D-11
 RMSDP=7.28D-02 MaxDP=5.30D+00

 Cycle   2  Pass 1  IDiag 1:
 RMSU=  7.27D-02    CP:  9.36D-01
 E=-0.742985648293211D+04 Delta-E=      -15.162077485766
 DIIS: error= 2.63D-01 at cycle   2.
 Coeff:-0.184D+00-0.816D+00
 T= 2700. Gap= 0.015 NK=0 IS=    1 IE=  464
          NO(<0.9)=   1  NV(>0.1)=   1 115.68e < EF 0.32e >EF  Err=7.9D-11
 RMSDP=8.49D-02 MaxDP=7.35D+00

 Cycle   3  Pass 1  IDiag 1:
 RMSU=  6.13D-02    CP:  6.99D-01  2.06D-01
 E=-0.741465741616922D+04 Delta-E=       15.199066762900
 DIIS: error= 3.81D-01 at cycle   3.
 Coeff:-0.447D-01-0.532D+00-0.423D+00
 T= 2400. Gap= 0.044 NK=0 IS=    1 IE=  464
          NO(<0.9)=   0  NV(>0.1)=   0 115.93e < EF 0.07e >EF  Err=3.6D-11
 RMSDP=7.78D-02 MaxDP=1.03D+01

 Cycle   4  Pass 1  IDiag 1:
 RMSU=  5.23D-02    CP:  5.31D-01  1.26D-01  7.20D-02
 E=-0.743757677297489D+04 Delta-E=      -22.919356805678
 DIIS: error= 2.37D-01 at cycle   4.
 Coeff:-0.205D-01-0.312D+00-0.228D+00-0.440D+00
 T= 2400. Gap= 0.004 NK=2 IS=  108 IE=  132
          NO(<0.9)=   1  NV(>0.1)=   3 115.23e < EF 0.77e >EF  Err=0.0D+00
 RMSDP=2.39D-01 MaxDP=5.65D+01

 Cycle   5  Pass 1  IDiag 1:
 RMSU=  1.71D-01    CP:  1.52D+00  5.88D-01  2.46D+00 -5.74D-02
 E=-0.739500521817315D+04 Delta-E=       42.571554801739
 DIIS: error= 3.84D-01 at cycle   5.
 Coeff:-0.182D-01-0.245D+00-0.148D+00-0.474D+00-0.115D+00
 T= 1800. Gap= 0.073 NK=0 IS=    1 IE=  464
          NO(<0.9)=   0  NV(>0.1)=   0 116.00e < EF 0.00e >EF  Err=6.8D-12
 RMSDP=2.32D-01 MaxDP=5.48D+01

 Cycle   6  Pass 1  IDiag 1:
 RMSU=  1.93D-02    CP:  3.93D-01  1.04D-01  1.42D-01  7.42D-02  1.60D-03
 E=-0.744885503567372D+04 Delta-E=      -53.849817500561
 DIIS: error= 3.18D-01 at cycle   6.
 Coeff:-0.983D-02-0.145D+00-0.126D-01-0.347D+00-0.315D-01-0.454D+00
 T= 1800. Gap= 0.021 NK=2 IS=  105 IE=  125
          NO(<0.9)=   0  NV(>0.1)=   1 115.51e < EF 0.49e >EF  Err=1.4D-14
 RMSDP=8.56D-03 MaxDP=8.80D-01

 Cycle   7  Pass 1  IDiag 1:
 RMSU=  7.50D-03    CP:  4.05D-01  8.72D-02  1.24D-01  7.86D-02 -1.40D-03
                    CP:  8.09D-01
 E=-0.745272864734301D+04 Delta-E=       -3.873611669296
 DIIS: error= 1.52D-01 at cycle   7.
 Coeff:-0.276D-02-0.923D-01-0.178D-03-0.185D+00 0.742D-02 0.894D-01
 Coeff:-0.816D+00
 T= 1200. Gap= 0.033 NK=0 IS=    1 IE=  464
          NO(<0.9)=   0  NV(>0.1)=   0 115.99e < EF 0.01e >EF  Err=3.8D-11
 RMSDP=5.61D-03 MaxDP=8.16D-01

 Cycle   8  Pass 1  IDiag 1:
 RMSU=  4.87D-03    CP:  3.79D-01  8.99D-02  9.25D-02  8.36D-02 -6.33D-03
                    CP:  7.69D-01  8.53D-01
 E=-0.745369487374950D+04 Delta-E=       -0.966226406492
 DIIS: error= 1.03D-01 at cycle   8.
 Coeff:-0.576D-03-0.638D-01-0.539D-02-0.952D-01-0.151D-01 0.278D+00
 Coeff:-0.443D+00-0.655D+00
 T= 1200. Gap= 0.151 NK=4 IS=   91 IE=  146
          NO(<0.9)=   0  NV(>0.1)=   0 116.00e < EF 0.00e >EF  Err=0.0D+00
 RMSDP=3.26D-03 MaxDP=5.43D-01

 Cycle   9  Pass 1  IDiag 1:
 RMSU=  2.58D-03    CP:  3.70D-01  8.38D-02  6.77D-02  9.14D-02 -1.07D-02
                    CP:  7.35D-01  8.89D-01  1.04D+00
 E=-0.745405583402833D+04 Delta-E=       -0.360960278824
 DIIS: error= 6.09D-02 at cycle   9.
 Coeff:-0.584D-05-0.465D-01-0.148D-02-0.385D-01-0.149D-01 0.140D+00
 Coeff: 0.824D-02-0.135D+00-0.912D+00
 T=  600. Gap= 0.209 NK=0 IS=    1 IE=  464
          NO(<0.9)=   0  NV(>0.1)=   0 116.00e < EF 0.00e >EF  Err=0.0D+00
 RMSDP=2.70D-03 MaxDP=2.03D-01

 Cycle  10  Pass 1  IDiag 1:
 RMSU=  2.25D-03    CP:  3.70D-01  7.06D-02  6.24D-02  9.37D-02 -1.15D-02
                    CP:  6.94D-01  9.84D-01  1.02D+00  1.07D+00
 E=-0.745418402403687D+04 Delta-E=       -0.128190008544
 DIIS: error= 2.95D-02 at cycle  10.
 Coeff: 0.853D-04-0.205D-01 0.165D-02-0.360D-02-0.355D-02-0.163D-01
 Coeff: 0.190D+00 0.267D+00-0.527D+00-0.887D+00
 T=  300. Gap= 0.214 NK=0 IS=    1 IE=  464
          NO(<0.9)=   0  NV(>0.1)=   0 116.00e < EF 0.00e >EF  Err=0.0D+00
 RMSDP=1.50D-03 MaxDP=1.38D-01

 Cycle  11  Pass 1  IDiag 1:
 RMSU=  1.14D-03    CP:  3.71D-01  6.99D-02  5.57D-02  9.46D-02 -1.18D-02
                    CP:  6.74D-01  1.01D+00  1.02D+00  1.25D+00  1.27D+00
 E=-0.745422403661365D+04 Delta-E=       -0.040012576780
 DIIS: error= 1.76D-02 at cycle  11.
 Coeff:-0.101D-04-0.818D-02 0.352D-03 0.284D-03-0.679D-03-0.182D-01
 Coeff: 0.109D+00 0.133D+00-0.129D+00-0.527D+00-0.560D+00
 RMSDP=8.57D-04 MaxDP=4.04D-02

 Cycle  12  Pass 1  IDiag 1:
 RMSU=  6.04D-04    CP:  3.69D-01  7.28D-02  5.25D-02  9.53D-02 -1.22D-02
                    CP:  6.71D-01  9.68D-01  1.09D+00  1.35D+00  1.21D+00
                    CP:  9.80D-01
 E=-0.745423407902961D+04 Delta-E=       -0.010042415959
 DIIS: error= 2.78D-03 at cycle  12.
 Coeff: 0.951D-05-0.210D-02-0.113D-04-0.158D-02 0.329D-04-0.564D-02
 Coeff: 0.370D-01 0.842D-02 0.341D-02-0.132D+00-0.228D+00-0.680D+00
 RMSDP=2.30D-04 MaxDP=2.68D-02

 Cycle  13  Pass 1  IDiag 1:
 RMSU=  1.90D-04    CP:  3.69D-01  7.27D-02  5.19D-02  9.59D-02 -1.22D-02
                    CP:  6.69D-01  9.62D-01  1.10D+00  1.37D+00  1.23D+00
                    CP:  9.48D-01  1.01D+00
 E=-0.745423481825418D+04 Delta-E=       -0.000739224569
 DIIS: error= 2.17D-03 at cycle  13.
 Coeff: 0.145D-04 0.151D-03-0.589D-03-0.544D-03 0.125D-03-0.166D-02
 Coeff: 0.144D-01-0.815D-02 0.146D-01-0.107D-02-0.290D-01-0.324D+00
 Coeff:-0.664D+00
 RMSDP=1.01D-04 MaxDP=5.21D-03

 Cycle  14  Pass 1  IDiag 1:
 RMSU=  6.18D-05    CP:  3.68D-01  7.26D-02  5.17D-02  9.61D-02 -1.22D-02
                    CP:  6.68D-01  9.59D-01  1.11D+00  1.38D+00  1.25D+00
                    CP:  9.72D-01  1.08D+00  9.50D-01
 E=-0.745423503484358D+04 Delta-E=       -0.000216589401
 DIIS: error= 5.26D-04 at cycle  14.
 Coeff: 0.193D-05 0.386D-03-0.346D-03-0.246D-03 0.734D-04-0.483D-03
 Coeff: 0.459D-02-0.351D-02 0.302D-02 0.124D-01 0.855D-02-0.783D-01
 Coeff:-0.371D+00-0.575D+00
 RMSDP=3.95D-05 MaxDP=1.77D-03

 Cycle  15  Pass 1  IDiag 1:
 RMSU=  2.71D-05    CP:  3.68D-01  7.28D-02  5.17D-02  9.61D-02 -1.23D-02
                    CP:  6.68D-01  9.58D-01  1.11D+00  1.38D+00  1.24D+00
                    CP:  9.84D-01  1.10D+00  9.54D-01  9.36D-01
 E=-0.745423505670072D+04 Delta-E=       -0.000021857137
 DIIS: error= 3.47D-04 at cycle  15.
 Coeff:-0.219D-05 0.122D-03-0.486D-04-0.198D-03 0.594D-04-0.901D-04
 Coeff: 0.311D-03 0.176D-03-0.360D-02 0.342D-02 0.205D-02 0.101D-01
 Coeff:-0.785D-01-0.256D+00-0.678D+00
 RMSDP=1.20D-05 MaxDP=1.02D-03

 Cycle  16  Pass 1  IDiag 1:
 RMSU=  9.70D-06    CP:  3.68D-01  7.27D-02  5.17D-02  9.61D-02 -1.23D-02
                    CP:  6.68D-01  9.58D-01  1.11D+00  1.38D+00  1.24D+00
                    CP:  9.81D-01  1.10D+00  9.69D-01  9.18D-01  9.31D-01
 E=-0.745423506114170D+04 Delta-E=       -0.000004440986
 DIIS: error= 1.69D-04 at cycle  16.
 Coeff:-0.714D-06 0.478D-04-0.261D-04-0.361D-04 0.850D-05 0.706D-05
 Coeff:-0.118D-05 0.949D-03-0.193D-02 0.351D-03-0.124D-02 0.174D-01
 Coeff: 0.180D-01-0.287D-01-0.302D+00-0.703D+00
 RMSDP=6.36D-06 MaxDP=3.65D-04

 Cycle  17  Pass 1  IDiag 1:
 RMSU=  3.04D-06    CP:  3.68D-01  7.27D-02  5.17D-02  9.61D-02 -1.23D-02
                    CP:  6.68D-01  9.58D-01  1.11D+00  1.38D+00  1.24D+00
                    CP:  9.82D-01  1.10D+00  9.77D-01  9.56D-01  9.66D-01
                    CP:  8.73D-01
 E=-0.745423506203897D+04 Delta-E=       -0.000000897267
 DIIS: error= 2.13D-05 at cycle  17.
 Coeff:-0.147D-06 0.182D-04-0.991D-05-0.984D-05 0.726D-06 0.124D-04
 Coeff:-0.307D-04 0.467D-03-0.671D-03-0.610D-04-0.117D-02 0.794D-02
 Coeff: 0.158D-01 0.945D-02-0.973D-01-0.365D+00-0.570D+00
 RMSDP=1.24D-06 MaxDP=4.34D-05

 Cycle  18  Pass 1  IDiag 1:
 RMSU=  9.08D-07    CP:  3.68D-01  7.27D-02  5.17D-02  9.61D-02 -1.23D-02
                    CP:  6.68D-01  9.58D-01  1.11D+00  1.38D+00  1.24D+00
                    CP:  9.82D-01  1.10D+00  9.77D-01  9.61D-01  9.86D-01
                    CP:  8.88D-01  8.58D-01
 E=-0.745423506207915D+04 Delta-E=       -0.000000040178
 DIIS: error= 8.41D-06 at cycle  18.
 Coeff:-0.455D-07 0.117D-05 0.288D-06-0.293D-05 0.183D-06 0.151D-05
 Coeff:-0.215D-04 0.111D-03-0.112D-03-0.142D-03-0.611D-03 0.147D-02
 Coeff: 0.530D-02 0.873D-02-0.902D-02-0.782D-01-0.307D+00-0.620D+00
 RMSDP=5.68D-07 MaxDP=3.53D-05

 Cycle  19  Pass 1  IDiag 1:
 RMSU=  3.05D-07    CP:  3.68D-01  7.27D-02  5.17D-02  9.61D-02 -1.23D-02
                    CP:  6.68D-01  9.58D-01  1.11D+00  1.38D+00  1.24D+00
                    CP:  9.82D-01  1.10D+00  9.77D-01  9.61D-01  9.96D-01
                    CP:  9.08D-01  8.68D-01  7.93D-01
 E=-0.745423506208670D+04 Delta-E=       -0.000000007557
 DIIS: error= 3.39D-06 at cycle  19.
 Coeff:-0.271D-07-0.124D-07 0.105D-06-0.267D-06 0.377D-07 0.523D-06
 Coeff:-0.796D-05 0.197D-04 0.403D-05-0.358D-04-0.194D-03 0.185D-03
 Coeff: 0.131D-02 0.290D-02 0.115D-02-0.104D-01-0.103D+00-0.285D+00
 Coeff:-0.607D+00
 RMSDP=1.56D-07 MaxDP=1.13D-05

 Cycle  20  Pass 1  IDiag 1:
 Restarting incremental Fock formation.
 E=-0.745423506208796D+04 Delta-E=       -0.000000001254
 DIIS: error= 7.95D-07 at cycle   1.
 RMSDP=8.05D-08 MaxDP=4.52D-06

 Cycle  21  Pass 1  IDiag 1:
 RMSU=  8.04D-08    CP:  1.00D+00
 E=-0.745423506208786D+04 Delta-E=        0.000000000100
 DIIS: error= 1.37D-06 at cycle   2.
 Coeff:-0.638D+00-0.362D+00
 RMSDP=4.55D-08 MaxDP=2.13D-06

 Cycle  22  Pass 1  IDiag 1:
 RMSU=  2.02D-08    CP:  1.00D+00  4.93D-01
 E=-0.745423506208805D+04 Delta-E=       -0.000000000187
 DIIS: error= 5.92D-08 at cycle   3.
 Coeff:-0.297D+00-0.174D+00-0.530D+00
 RMSDP=7.57D-09 MaxDP=4.90D-07

 SCF Done:  E(RB+HF-LYP) =  -3689.18741266     A.U. after   22 cycles
             Convg  =    0.7571D-08             -V/T =  2.0038
             S**2   =   0.0000
 KE= 3.675203889706D+03 PE=-1.628689238979D+04 EE= 5.157453437998D+03
 Leave Link  502 at Fri Mar 11 16:34:16 2005, MaxMem=   16777216 cpu:   16041.0
 (Enter /home/ugliengo/g98a11/l601.exe)
 Copying SCF densities to generalized density rwf, ISCF=0 IROHF=0.

 **********************************************************************

            Population analysis using the SCF density.

 **********************************************************************

 Alpha  occ. eigenvalues -- -145.34024 -66.22904 -66.20329 -66.20029 -66.19791
 Alpha  occ. eigenvalues --  -66.18438 -66.16415 -66.15490 -19.23540 -19.21366
 Alpha  occ. eigenvalues --  -19.16633 -19.16469 -19.14839 -19.14696 -19.13872
 Alpha  occ. eigenvalues --  -19.13523 -19.12970 -19.12661 -19.12261 -19.08342
 Alpha  occ. eigenvalues --  -19.06938 -15.41037 -12.54273 -12.54228 -12.54109
 Alpha  occ. eigenvalues --   -5.37226  -5.34570  -5.34272  -5.34048  -5.32661
 Alpha  occ. eigenvalues --   -5.30728  -5.29822  -3.73250  -3.73204  -3.72975
 Alpha  occ. eigenvalues --   -3.70644  -3.70544  -3.70348  -3.70287  -3.70243
 Alpha  occ. eigenvalues --   -3.70078  -3.70061  -3.69989  -3.69769  -3.68708
 Alpha  occ. eigenvalues --   -3.68657  -3.68392  -3.66822  -3.66650  -3.66457
 Alpha  occ. eigenvalues --   -3.65923  -3.65743  -3.65537  -1.78811  -1.09165
 Alpha  occ. eigenvalues --   -1.07766  -1.06759  -1.05567  -1.05124  -1.03097
 Alpha  occ. eigenvalues --   -1.01518  -1.01203  -0.99446  -0.98669  -0.98270
 Alpha  occ. eigenvalues --   -0.97780  -0.96315  -0.95686  -0.89698  -0.88142
 Alpha  occ. eigenvalues --   -0.64211  -0.61142  -0.60529  -0.59208  -0.57300
 Alpha  occ. eigenvalues --   -0.56060  -0.53788  -0.53393  -0.50739  -0.48608
 Alpha  occ. eigenvalues --   -0.48208  -0.47907  -0.47679  -0.45271  -0.43105
 Alpha  occ. eigenvalues --   -0.42990  -0.42245  -0.40996  -0.40922  -0.40344
 Alpha  occ. eigenvalues --   -0.39756  -0.39664  -0.39606  -0.39196  -0.39094
 Alpha  occ. eigenvalues --   -0.37947  -0.36804  -0.36486  -0.36334  -0.35191
 Alpha  occ. eigenvalues --   -0.35118  -0.34652  -0.34153  -0.33709  -0.33217
 Alpha  occ. eigenvalues --   -0.33185  -0.33066  -0.32555  -0.31929  -0.31080
 Alpha  occ. eigenvalues --   -0.30573  -0.30016  -0.28562  -0.27743  -0.27001
 Alpha  occ. eigenvalues --   -0.26471
 Alpha virt. eigenvalues --   -0.06209  -0.03099  -0.00747  -0.00117   0.00031
 Alpha virt. eigenvalues --    0.00778   0.01252   0.01638   0.01893   0.02360
 Alpha virt. eigenvalues --    0.02463   0.02931   0.03435   0.03511   0.03969
 Alpha virt. eigenvalues --    0.04258   0.04340   0.04466   0.04561   0.04821
 Alpha virt. eigenvalues --    0.05055   0.05376   0.05869   0.06115   0.06424
 Alpha virt. eigenvalues --    0.06827   0.07500   0.07555   0.08151   0.08518
 Alpha virt. eigenvalues --    0.08706   0.08977   0.09408   0.10364   0.11028
 Alpha virt. eigenvalues --    0.11495   0.11914   0.12065   0.12393   0.12878
 Alpha virt. eigenvalues --    0.12946   0.13292   0.13563   0.14125   0.14561
 Alpha virt. eigenvalues --    0.14811   0.15396   0.15600   0.16029   0.16341
 Alpha virt. eigenvalues --    0.16450   0.16551   0.16957   0.17148   0.17372
 Alpha virt. eigenvalues --    0.17662   0.18011   0.18406   0.18439   0.18678
 Alpha virt. eigenvalues --    0.19167   0.19296   0.19653   0.19846   0.20103
 Alpha virt. eigenvalues --    0.20240   0.20603   0.21038   0.21613   0.21870
 Alpha virt. eigenvalues --    0.22466   0.22822   0.23201   0.23396   0.23879
 Alpha virt. eigenvalues --    0.24323   0.25001   0.25841   0.26293   0.27039
 Alpha virt. eigenvalues --    0.27678   0.27937   0.28501   0.29069   0.29826
 Alpha virt. eigenvalues --    0.29926   0.30132   0.30406   0.31364   0.31683
 Alpha virt. eigenvalues --    0.31868   0.32453   0.32762   0.32978   0.33408
 Alpha virt. eigenvalues --    0.34084   0.34210   0.34390   0.35008   0.35184
 Alpha virt. eigenvalues --    0.35669   0.36252   0.36652   0.37504   0.37891
 Alpha virt. eigenvalues --    0.38057   0.39086   0.39224   0.39738   0.40491
 Alpha virt. eigenvalues --    0.40624   0.41277   0.41322   0.42126   0.42299
 Alpha virt. eigenvalues --    0.42601   0.42904   0.43357   0.43505   0.43932
 Alpha virt. eigenvalues --    0.44457   0.44965   0.45202   0.45415   0.46473
 Alpha virt. eigenvalues --    0.46887   0.47226   0.47496   0.48034   0.48283
 Alpha virt. eigenvalues --    0.48500   0.49349   0.49793   0.50676   0.51034
 Alpha virt. eigenvalues --    0.51923   0.52903   0.56229   0.56483   0.57704
 Alpha virt. eigenvalues --    0.58108   0.58242   0.59231   0.60337   0.62419
 Alpha virt. eigenvalues --    0.63502   0.65549   0.66522   0.67486   0.67853
 Alpha virt. eigenvalues --    0.68938   0.69794   0.70546   0.71682   0.72143
 Alpha virt. eigenvalues --    0.72480   0.73017   0.73724   0.75085   0.76014
 Alpha virt. eigenvalues --    0.76798   0.77578   0.78103   0.78826   0.79194
 Alpha virt. eigenvalues --    0.79581   0.80844   0.82798   0.83265   0.85634
 Alpha virt. eigenvalues --    0.86487   0.90310   0.92765   0.93470   0.94119
 Alpha virt. eigenvalues --    0.94519   0.96837   0.98228   0.98295   1.01178
 Alpha virt. eigenvalues --    1.02164   1.03543   1.04665   1.05551   1.05766
 Alpha virt. eigenvalues --    1.07229   1.08367   1.08563   1.08638   1.09574
 Alpha virt. eigenvalues --    1.10106   1.11409   1.12153   1.12570   1.14791
 Alpha virt. eigenvalues --    1.17947   1.19254   1.23017   1.23942   1.25968
 Alpha virt. eigenvalues --    1.26300   1.27655   1.28013   1.28630   1.29729
 Alpha virt. eigenvalues --    1.29994   1.30382   1.30955   1.31084   1.31683
 Alpha virt. eigenvalues --    1.32611   1.33077   1.33337   1.33782   1.33827
 Alpha virt. eigenvalues --    1.34198   1.35953   1.36996   1.37891   1.38053
 Alpha virt. eigenvalues --    1.39393   1.40221   1.41588   1.42035   1.43296
 Alpha virt. eigenvalues --    1.43960   1.45102   1.45256   1.46084   1.46446
 Alpha virt. eigenvalues --    1.48970   1.50132   1.53357   1.53632   1.56189
 Alpha virt. eigenvalues --    1.56756   1.58069   1.59597   1.61436   1.62571
 Alpha virt. eigenvalues --    1.63777   1.64910   1.65735   1.67119   1.68052
 Alpha virt. eigenvalues --    1.69070   1.72657   1.73219   1.73685   1.74638
 Alpha virt. eigenvalues --    1.75609   1.76811   1.77286   1.77503   1.78307
 Alpha virt. eigenvalues --    1.78469   1.79498   1.80003   1.80403   1.81070
 Alpha virt. eigenvalues --    1.81926   1.83164   1.83974   1.85037   1.85463
 Alpha virt. eigenvalues --    1.86942   1.88273   1.88956   1.89959   1.90446
 Alpha virt. eigenvalues --    1.91725   1.92809   1.93739   1.94225   1.94771
 Alpha virt. eigenvalues --    1.95543   1.96111   1.97319   1.98147   2.00483
 Alpha virt. eigenvalues --    2.01422   2.02798   2.06613   2.07601   2.07859
 Alpha virt. eigenvalues --    2.10707   2.11258   2.13607   2.15343   2.16231
 Alpha virt. eigenvalues --    2.17939   2.19037   2.19441   2.20238   2.21484
 Alpha virt. eigenvalues --    2.21961   2.23559   2.25217   2.25760   2.26325
 Alpha virt. eigenvalues --    2.27623   2.28605   2.29200   2.29355   2.29823
 Alpha virt. eigenvalues --    2.30560   2.31775   2.32574   2.34114   2.34999
 Alpha virt. eigenvalues --    2.37269   2.39086   2.41670   2.41959   2.44771
 Alpha virt. eigenvalues --    2.45399   2.46218   2.48627   2.50247   2.51607
 Alpha virt. eigenvalues --    2.52192   2.55038   2.56576   2.58246   2.58595
 Alpha virt. eigenvalues --    2.58874   2.65383   2.67252   2.70919   2.72329
 Alpha virt. eigenvalues --    2.73680   2.74898   2.80900   2.87656   2.88108
 Alpha virt. eigenvalues --    2.89038   2.89554   2.89944   2.90352   2.91585
 Alpha virt. eigenvalues --    2.91912   2.93087   2.94503   2.95064   2.96857
 Alpha virt. eigenvalues --    3.39154   3.45247   3.46425
          Condensed to atoms (all electrons):
              1          2          3          4          5          6
  1  Ca  18.613058   0.056361   0.129901   0.152153  -0.283809  -0.259872
  2  O    0.056361   8.776557   0.004560   0.004820  -0.582745  -0.016025
  3  O    0.129901   0.004560   8.896256   0.005607  -0.032728  -0.368740
  4  O    0.152153   0.004820   0.005607   8.713193  -0.025998  -0.016042
  5  Si  -0.283809  -0.582745  -0.032728  -0.025998  15.025799   0.269115
  6  Si  -0.259872  -0.016025  -0.368740  -0.016042   0.269115  14.595411
  7  Si  -0.329732  -0.012023  -0.013245  -0.117373   0.279888   0.209483
  8  H   -0.025913   0.000015   0.000030  -0.091672   0.003059   0.002970
  9  H   -0.021255   0.000009  -0.111721   0.000012   0.002628   0.626016
 10  H   -0.014208  -0.102999  -0.000022  -0.000021   0.621279   0.001778
 11  O   -0.004636   0.158819   0.000318   0.004810  -0.180033  -0.012700
 12  O    0.003812   0.155852  -0.011759   0.000969  -0.170863   0.146673
 13  O   -0.021511   0.001454   0.108688   0.003405  -0.011270  -0.207548
 14  O   -0.010501   0.001310   0.000970   0.075110  -0.012662   0.074184
 15  O    0.007629   0.000537  -0.000035   0.061288   0.057512  -0.002770
 16  O   -0.002035   0.000189   0.105289  -0.000060   0.063631  -0.237505
 17  Si   0.182804   0.051372   0.012008   0.054657  -1.015357  -0.171650
 18  Si   0.169330   0.052381   0.111522   0.011039  -1.020693  -0.976454
 19  O   -0.000533   0.001752   0.002983  -0.001729  -0.040365  -0.043106
 20  O    0.002122   0.001601  -0.003265   0.002093  -0.039586   0.003980
 21  Si  -0.131393  -0.017777  -0.054373  -0.040037   0.473968   0.516639
 22  O    0.001156   0.000853   0.001996   0.000491  -0.034614  -0.014861
 23  Si   0.169754   0.004898   0.097302   0.066805  -0.175084  -1.005469
 24  H    0.002488  -0.000011   0.000084   0.000000  -0.037710  -0.039862
 25  H    0.002450  -0.000012   0.000000   0.000213  -0.037560  -0.000179
 26  H   -0.001541   0.000000  -0.000002  -0.000001   0.005548   0.005296
 27  H    0.002764   0.000000  -0.000011   0.000011  -0.000263  -0.041284
 28  H   -0.004475   0.229569   0.000066   0.000027   0.083848  -0.000137
 29  O   -0.014690   0.004376  -0.012223   0.006417   0.002621  -0.007302
 30  H    0.010354  -0.000453   0.019712  -0.000433  -0.000667  -0.003718
 31  H    0.004124   0.000091   0.002170  -0.000050  -0.000015  -0.001498
              7          8          9         10         11         12
  1  Ca  -0.329732  -0.025913  -0.021255  -0.014208  -0.004636   0.003812
  2  O   -0.012023   0.000015   0.000009  -0.102999   0.158819   0.155852
  3  O   -0.013245   0.000030  -0.111721  -0.000022   0.000318  -0.011759
  4  O   -0.117373  -0.091672   0.000012  -0.000021   0.004810   0.000969
  5  Si   0.279888   0.003059   0.002628   0.621279  -0.180033  -0.170863
  6  Si   0.209483   0.002970   0.626016   0.001778  -0.012700   0.146673
  7  Si  14.327494   0.595459   0.002729   0.002017   0.123064  -0.019238
  8  H    0.595459   0.850162   0.000000   0.000000  -0.000130  -0.000006
  9  H    0.002729   0.000000   0.845724   0.000000  -0.000007   0.000027
 10  H    0.002017   0.000000   0.000000   0.785349  -0.060865  -0.062660
 11  O    0.123064  -0.000130  -0.000007  -0.060865   8.786670   0.029017
 12  O   -0.019238  -0.000006   0.000027  -0.062660   0.029017   8.780227
 13  O    0.080112  -0.000237  -0.059708   0.000002   0.004866  -0.008855
 14  O   -0.198262  -0.053938  -0.000108   0.000002  -0.008821   0.005827
 15  O   -0.218215  -0.064696  -0.000002  -0.000098   0.189628   0.005888
 16  O   -0.001329  -0.000002  -0.067827  -0.000089   0.005322   0.193023
 17  Si  -0.905694  -0.029427  -0.000232  -0.035859  -0.638394  -0.037646
 18  Si  -0.165440  -0.000244  -0.030632  -0.035095  -0.040409  -0.653331
 19  O    0.004579   0.000106  -0.000013   0.000268   0.170961   0.018693
 20  O   -0.040068  -0.000011   0.000289   0.000227   0.019979   0.171707
 21  Si   0.474536   0.006017   0.006010   0.005762   0.111491   0.124051
 22  O   -0.009461   0.000043   0.000239  -0.000012  -0.002687  -0.003141
 23  Si  -0.952674  -0.030247  -0.032399  -0.000054  -0.046649  -0.052372
 24  H   -0.000170   0.000000  -0.000011   0.000001  -0.000230  -0.066253
 25  H   -0.040251  -0.000012   0.000000   0.000001  -0.066722  -0.000241
 26  H    0.005129   0.000000   0.000000   0.000000   0.000033   0.000027
 27  H   -0.041317  -0.000017  -0.000013   0.000000  -0.000019  -0.000018
 28  H   -0.000117   0.000000   0.000000   0.002831  -0.013820  -0.015529
 29  O    0.003137   0.000006  -0.000062   0.000006  -0.000485  -0.000960
 30  H   -0.000130   0.000000  -0.000049   0.000000   0.000004  -0.000044
 31  H    0.000124   0.000000   0.000000   0.000000  -0.000001  -0.000012
             13         14         15         16         17         18
  1  Ca  -0.021511  -0.010501   0.007629  -0.002035   0.182804   0.169330
  2  O    0.001454   0.001310   0.000537   0.000189   0.051372   0.052381
  3  O    0.108688   0.000970  -0.000035   0.105289   0.012008   0.111522
  4  O    0.003405   0.075110   0.061288  -0.000060   0.054657   0.011039
  5  Si  -0.011270  -0.012662   0.057512   0.063631  -1.015357  -1.020693
  6  Si  -0.207548   0.074184  -0.002770  -0.237505  -0.171650  -0.976454
  7  Si   0.080112  -0.198262  -0.218215  -0.001329  -0.905694  -0.165440
  8  H   -0.000237  -0.053938  -0.064696  -0.000002  -0.029427  -0.000244
  9  H   -0.059708  -0.000108  -0.000002  -0.067827  -0.000232  -0.030632
 10  H    0.000002   0.000002  -0.000098  -0.000089  -0.035859  -0.035095
 11  O    0.004866  -0.008821   0.189628   0.005322  -0.638394  -0.040409
 12  O   -0.008855   0.005827   0.005888   0.193023  -0.037646  -0.653331
 13  O    8.699289   0.089181   0.000774   0.119148  -0.047210   0.068703
 14  O    0.089181   8.677120   0.131794   0.002665   0.066986  -0.050014
 15  O    0.000774   0.131794   8.722787   0.001972  -0.429134  -0.027366
 16  O    0.119148   0.002665   0.001972   8.729299  -0.026810  -0.431040
 17  Si  -0.047210   0.066986  -0.429134  -0.026810  15.751076   0.472729
 18  Si   0.068703  -0.050014  -0.027366  -0.431040   0.472729  15.809231
 19  O   -0.002043   0.000300   0.094753   0.000412  -0.180591   0.111913
 20  O    0.002155  -0.001900   0.000877   0.099122   0.104257  -0.177127
 21  Si   0.051746   0.061571   0.065791   0.067596  -1.345618  -1.393733
 22  O    0.076820   0.072073   0.007973   0.008502   0.089371   0.093540
 23  Si  -0.311601  -0.299769   0.010018   0.010630   0.582808   0.596780
 24  H    0.000050  -0.000002  -0.000004  -0.077485   0.005439   0.637534
 25  H   -0.000002   0.000081  -0.077381  -0.000003   0.639243   0.005440
 26  H    0.000197   0.000195   0.000251   0.000246  -0.045382  -0.045673
 27  H   -0.065643  -0.064379  -0.000065  -0.000088   0.008325   0.008257
 28  H   -0.000013  -0.000012  -0.000080  -0.000077  -0.001609  -0.001744
 29  O   -0.000422  -0.000057  -0.000059  -0.000460   0.000113   0.000942
 30  H   -0.000043  -0.000020   0.000000   0.000355   0.000005   0.000272
 31  H   -0.000011  -0.000003   0.000000   0.000007  -0.000021   0.000041
             19         20         21         22         23         24
  1  Ca  -0.000533   0.002122  -0.131393   0.001156   0.169754   0.002488
  2  O    0.001752   0.001601  -0.017777   0.000853   0.004898  -0.000011
  3  O    0.002983  -0.003265  -0.054373   0.001996   0.097302   0.000084
  4  O   -0.001729   0.002093  -0.040037   0.000491   0.066805   0.000000
  5  Si  -0.040365  -0.039586   0.473968  -0.034614  -0.175084  -0.037710
  6  Si  -0.043106   0.003980   0.516639  -0.014861  -1.005469  -0.039862
  7  Si   0.004579  -0.040068   0.474536  -0.009461  -0.952674  -0.000170
  8  H    0.000106  -0.000011   0.006017   0.000043  -0.030247   0.000000
  9  H   -0.000013   0.000289   0.006010   0.000239  -0.032399  -0.000011
 10  H    0.000268   0.000227   0.005762  -0.000012  -0.000054   0.000001
 11  O    0.170961   0.019979   0.111491  -0.002687  -0.046649  -0.000230
 12  O    0.018693   0.171707   0.124051  -0.003141  -0.052372  -0.066253
 13  O   -0.002043   0.002155   0.051746   0.076820  -0.311601   0.000050
 14  O    0.000300  -0.001900   0.061571   0.072073  -0.299769  -0.000002
 15  O    0.094753   0.000877   0.065791   0.007973   0.010018  -0.000004
 16  O    0.000412   0.099122   0.067596   0.008502   0.010630  -0.077485
 17  Si  -0.180591   0.104257  -1.345618   0.089371   0.582808   0.005439
 18  Si   0.111913  -0.177127  -1.393733   0.093540   0.596780   0.637534
 19  O    8.637265   0.136025  -0.414269   0.129135   0.084018   0.000289
 20  O    0.136025   8.631253  -0.404229   0.131286   0.078908  -0.076359
 21  Si  -0.414269  -0.404229  15.806938  -0.367192  -1.188903  -0.045972
 22  O    0.129135   0.131286  -0.367192   8.589708  -0.060052   0.000256
 23  Si   0.084018   0.078908  -1.188903  -0.060052  15.079403   0.006684
 24  H    0.000289  -0.076359  -0.045972   0.000256   0.006684   0.827701
 25  H   -0.077690   0.000291  -0.046103   0.000253   0.006721   0.000000
 26  H   -0.072989  -0.073246   0.639307  -0.075189  -0.044324  -0.000015
 27  H    0.000239   0.000231  -0.051305  -0.067218   0.604322   0.000000
 28  H    0.000005   0.000008  -0.000071   0.000000   0.000145   0.000001
 29  O    0.000010   0.000018  -0.000242   0.000021   0.000904   0.000000
 30  H    0.000000   0.000000  -0.000024   0.000001   0.000069   0.000000
 31  H    0.000000   0.000000  -0.000001   0.000000   0.000029   0.000000
             25         26         27         28         29         30
  1  Ca   0.002450  -0.001541   0.002764  -0.004475  -0.014690   0.010354
  2  O   -0.000012   0.000000   0.000000   0.229569   0.004376  -0.000453
  3  O    0.000000  -0.000002  -0.000011   0.000066  -0.012223   0.019712
  4  O    0.000213  -0.000001   0.000011   0.000027   0.006417  -0.000433
  5  Si  -0.037560   0.005548  -0.000263   0.083848   0.002621  -0.000667
  6  Si  -0.000179   0.005296  -0.041284  -0.000137  -0.007302  -0.003718
  7  Si  -0.040251   0.005129  -0.041317  -0.000117   0.003137  -0.000130
  8  H   -0.000012   0.000000  -0.000017   0.000000   0.000006   0.000000
  9  H    0.000000   0.000000  -0.000013   0.000000  -0.000062  -0.000049
 10  H    0.000001   0.000000   0.000000   0.002831   0.000006   0.000000
 11  O   -0.066722   0.000033  -0.000019  -0.013820  -0.000485   0.000004
 12  O   -0.000241   0.000027  -0.000018  -0.015529  -0.000960  -0.000044
 13  O   -0.000002   0.000197  -0.065643  -0.000013  -0.000422  -0.000043
 14  O    0.000081   0.000195  -0.064379  -0.000012  -0.000057  -0.000020
 15  O   -0.077381   0.000251  -0.000065  -0.000080  -0.000059   0.000000
 16  O   -0.000003   0.000246  -0.000088  -0.000077  -0.000460   0.000355
 17  Si   0.639243  -0.045382   0.008325  -0.001609   0.000113   0.000005
 18  Si   0.005440  -0.045673   0.008257  -0.001744   0.000942   0.000272
 19  O   -0.077690  -0.072989   0.000239   0.000005   0.000010   0.000000
 20  O    0.000291  -0.073246   0.000231   0.000008   0.000018   0.000000
 21  Si  -0.046103   0.639307  -0.051305  -0.000071  -0.000242  -0.000024
 22  O    0.000253  -0.075189  -0.067218   0.000000   0.000021   0.000001
 23  Si   0.006721  -0.044324   0.604322   0.000145   0.000904   0.000069
 24  H    0.000000  -0.000015   0.000000   0.000001   0.000000   0.000000
 25  H    0.827883  -0.000015   0.000000   0.000001   0.000000   0.000000
 26  H   -0.000015   0.841656  -0.000015   0.000000   0.000000   0.000000
 27  H    0.000000  -0.000015   0.853016   0.000000   0.000000   0.000000
 28  H    0.000001   0.000000   0.000000   0.324747   0.000189  -0.000006
 29  O    0.000000   0.000000   0.000000   0.000189   8.277770   0.260845
 30  H    0.000000   0.000000   0.000000  -0.000006   0.260845   0.294074
 31  H    0.000000   0.000000   0.000000   0.000000   0.251284  -0.009972
             31
  1  Ca   0.004124
  2  O    0.000091
  3  O    0.002170
  4  O   -0.000050
  5  Si  -0.000015
  6  Si  -0.001498
  7  Si   0.000124
  8  H    0.000000
  9  H    0.000000
 10  H    0.000000
 11  O   -0.000001
 12  O   -0.000012
 13  O   -0.000011
 14  O   -0.000003
 15  O    0.000000
 16  O    0.000007
 17  Si  -0.000021
 18  Si   0.000041
 19  O    0.000000
 20  O    0.000000
 21  Si  -0.000001
 22  O    0.000000
 23  Si   0.000029
 24  H    0.000000
 25  H    0.000000
 26  H    0.000000
 27  H    0.000000
 28  H    0.000000
 29  O    0.251284
 30  H   -0.009972
 31  H    0.331475
 Total atomic charges:
              1
  1  Ca   1.615845
  2  O   -0.775331
  3  O   -0.891338
  4  O   -0.869704
  5  Si   0.813128
  6  Si   0.975176
  7  Si   0.956988
  8  H   -0.161314
  9  H   -0.159644
 10  H   -0.107539
 11  O   -0.528374
 12  O   -0.532865
 13  O   -0.570471
 14  O   -0.558919
 15  O   -0.539565
 16  O   -0.562594
 17  Si   0.889443
 18  Si   0.899343
 19  O   -0.560378
 20  O   -0.570635
 21  Si   1.089818
 22  O   -0.569289
 23  Si   0.799400
 24  H   -0.136443
 25  H   -0.136405
 26  H   -0.139493
 27  H   -0.145511
 28  H    0.396256
 29  O   -0.771694
 30  H    0.429870
 31  H    0.422240
 Sum of Mulliken charges=   0.00000
 Atomic charges with hydrogens summed into heavy atoms:
              1
  1  Ca   1.615845
  2  O   -0.379076
  3  O   -0.891338
  4  O   -0.869704
  5  Si   0.705589
  6  Si   0.815533
  7  Si   0.795674
  8  H    0.000000
  9  H    0.000000
 10  H    0.000000
 11  O   -0.528374
 12  O   -0.532865
 13  O   -0.570471
 14  O   -0.558919
 15  O   -0.539565
 16  O   -0.562594
 17  Si   0.753038
 18  Si   0.762900
 19  O   -0.560378
 20  O   -0.570635
 21  Si   0.950325
 22  O   -0.569289
 23  Si   0.653889
 24  H    0.000000
 25  H    0.000000
 26  H    0.000000
 27  H    0.000000
 28  H    0.000000
 29  O    0.080415
 30  H    0.000000
 31  H    0.000000
 Sum of Mulliken charges=   0.00000
 Electronic spatial extent (au):  <R**2>=  7901.3980
 Charge=     0.0000 electrons
 Dipole moment (Debye):
    X=    -8.5318    Y=    -0.7481    Z=     5.7463  Tot=    10.3136
 Quadrupole moment (Debye-Ang):
   XX=  -135.2466   YY=  -194.7971   ZZ=  -172.1046
   XY=     8.3290   XZ=    -7.8838   YZ=    -6.5646
 Octapole moment (Debye-Ang**2):
  XXX=  -293.2241  YYY=    15.4925  ZZZ=    57.3038  XYY=    -6.1225
  XXY=   -29.9777  XXZ=    22.2506  XZZ=   -35.1551  YZZ=   -10.2928
  YYZ=    23.3023  XYZ=    13.6592
 Hexadecapole moment (Debye-Ang**3):
 XXXX= -2604.4514 YYYY= -3457.2916 ZZZZ= -2874.6979 XXXY=   126.1657
 XXXZ=   -43.4782 YYYX=    24.9958 YYYZ=   -40.5767 ZZZX=   -91.8180
 ZZZY=   -48.9045 XXYY= -1210.6725 XXZZ= -1119.9320 YYZZ= -1068.3919
 XXYZ=   -49.2206 YYXZ=   -32.2948 ZZXY=    37.5103
 N-N= 3.765047649431D+03 E-N=-1.628689240632D+04  KE= 3.675203889706D+03
 Leave Link  601 at Fri Mar 11 16:34:16 2005, MaxMem=   16777216 cpu:       0.6
 (Enter /home/ugliengo/g98a11/l701.exe)
 Compute integral first derivatives.
 ... and contract with generalized density number  0.
 Leave Link  701 at Fri Mar 11 16:34:18 2005, MaxMem=   16777216 cpu:       1.8
 (Enter /home/ugliengo/g98a11/l702.exe)
 L702 exits ... SP integral derivatives will be done elsewhere.
 Leave Link  702 at Fri Mar 11 16:34:18 2005, MaxMem=   16777216 cpu:       0.0
 (Enter /home/ugliengo/g98a11/l703.exe)
 Compute integral first derivatives.
 Integral derivatives from FoFDir, PRISM(SPDF).
 Symmetry not used in FoFDir.
 MinBra= 0 MaxBra= 2 Meth= 1.
 IRaf=       0 NMat=   1 IRICut=       1 DoRegI=T DoRafI=F ISym2E= 0 JSym2E=0.
 Leave Link  703 at Fri Mar 11 17:25:18 2005, MaxMem=   16777216 cpu:    3047.8
 (Enter /home/ugliengo/g98a11/l716.exe)
 Dipole        =-3.35664521D+00-2.94332212D-01 2.26074021D+00
 ***** Axes restored to original set *****
 -------------------------------------------------------------------
 Center     Atomic                   Forces (Hartrees/Bohr)
 Number     Number              X              Y              Z
 -------------------------------------------------------------------
    1         20           0.011785215   -0.001714992    0.001537883
    2          8           0.001233547   -0.003563791   -0.003212839
    3          8          -0.009480565    0.001443450   -0.001733401
    4          8           0.002022750   -0.005590021    0.002604340
    5         14           0.001261823    0.003943716    0.002013854
    6         14           0.000602605   -0.003470979   -0.000306886
    7         14           0.000695658    0.004896810   -0.000572750
    8          1          -0.000007796   -0.000654955    0.000220608
    9          1          -0.000373587    0.000245300    0.000013769
   10          1          -0.000004782   -0.000431804   -0.000414729
   11          8           0.000125408   -0.001299724    0.000186636
   12          8          -0.002411412   -0.001153156   -0.000401199
   13          8          -0.001032967    0.001869972   -0.000995402
   14          8          -0.002382681   -0.001402965   -0.000463450
   15          8           0.000411702   -0.001243003   -0.000530883
   16          8          -0.001225340    0.001168258    0.001197458
   17         14           0.000164705    0.001597739    0.000596564
   18         14           0.002500205    0.000131937   -0.000397576
   19          8          -0.000909247   -0.000811023   -0.000305757
   20          8          -0.000637081   -0.000027699   -0.000140828
   21         14           0.001076189    0.000362467    0.000321910
   22          8          -0.000450396   -0.000025219   -0.000249823
   23         14           0.002516399   -0.000279731    0.000938750
   24          1          -0.000243396   -0.000023429   -0.000012656
   25          1           0.000055505   -0.000184028   -0.000101017
   26          1          -0.000085067   -0.000043391   -0.000050531
   27          1          -0.000283031   -0.000040823   -0.000095291
   28          1          -0.000581544    0.000175349    0.000709491
   29          8          -0.012178218    0.031409540   -0.000683656
   30          1           0.015880239    0.008463723    0.004138452
   31          1          -0.008044839   -0.033747529   -0.003811039
 -------------------------------------------------------------------
 Cartesian Forces:  Max     0.033747529 RMS     0.005782753
 Leave Link  716 at Fri Mar 11 17:25:18 2005, MaxMem=   16777216 cpu:       0.0
 (Enter /home/ugliengo/g98a11/l103.exe)

 GradGradGradGradGradGradGradGradGradGradGradGradGradGradGradGradGradGrad
 Berny optimization.
 Internal  Forces:  Max     0.034201089 RMS     0.003118724
 Search for a local minimum.
 Step number   1 out of a maximum of 186
 All quantities printed in internal units (Hartrees-Bohrs-Radians)
 Second derivative matrix not updated -- first step.
     Eigenvalues ---    0.00536   0.01049   0.03264   0.03603   0.03683
     Eigenvalues ---    0.03743   0.03964   0.03996   0.04065   0.04147
     Eigenvalues ---    0.04315   0.04381   0.04560   0.04691   0.04785
     Eigenvalues ---    0.05271   0.06178   0.07890   0.08473   0.08514
     Eigenvalues ---    0.08820   0.08940   0.09200   0.09254   0.09528
     Eigenvalues ---    0.09580   0.09726   0.09798   0.10093   0.10109
     Eigenvalues ---    0.10203   0.10420   0.10578   0.10603   0.10676
     Eigenvalues ---    0.10788   0.12266   0.12808   0.12922   0.13608
     Eigenvalues ---    0.14024   0.14269   0.14547   0.14663   0.15480
     Eigenvalues ---    0.15918   0.16000   0.16006   0.16994   0.18109
     Eigenvalues ---    0.18109   0.18275   0.18346   0.18395   0.18464
     Eigenvalues ---    0.18465   0.18502   0.18624   0.19528   0.19722
     Eigenvalues ---    0.19926   0.22359   0.23387   0.31908   0.34633
     Eigenvalues ---    0.35404   0.35757   0.36467   0.37451   0.38320
     Eigenvalues ---    0.39336   0.40641   0.41076   0.41904   0.42744
     Eigenvalues ---    0.42964   0.43269   0.43852   0.44338   0.45418
     Eigenvalues ---    0.45717   0.46467   0.46811   0.47693   0.49344
     Eigenvalues ---    0.50009   0.542341000.000001000.000001000.00000
     Eigenvalues --- 1000.000001000.000001000.000001000.000001000.00000
     Eigenvalues --- 1000.000001000.000001000.000001000.000001000.00000
     Eigenvalues --- 1000.000001000.000001000.000001000.000001000.00000
     Eigenvalues --- 1000.000001000.000001000.000001000.000001000.00000
     Eigenvalues --- 1000.000001000.000001000.000001000.000001000.00000
     Eigenvalues --- 1000.000001000.000001000.000001000.000001000.00000
     Eigenvalues --- 1000.000001000.000001000.000001000.000001000.00000
     Eigenvalues --- 1000.000001000.000001000.000001000.000001000.00000
     Eigenvalues --- 1000.000001000.000001000.000001000.000001000.00000
     Eigenvalues --- 1000.000001000.000001000.000001000.000001000.00000
     Eigenvalues --- 1000.000001000.000001000.000001000.000001000.00000
     Eigenvalues --- 1000.000001000.000001000.000001000.000001000.00000
     Eigenvalues --- 1000.000001000.000001000.000001000.000001000.00000
     Eigenvalues --- 1000.000001000.000001000.000001000.000001000.00000
     Eigenvalues --- 1000.000001000.000001000.000001000.000001000.00000
     Eigenvalues --- 1000.000001000.000001000.000001000.000001000.00000
     Eigenvalues --- 1000.000001000.000001000.000001000.000001000.00000
     Eigenvalues --- 1000.000001000.000001000.000001000.000001000.00000
     Eigenvalues --- 1000.000001000.000001000.000001000.000001000.00000
     Eigenvalues --- 1000.000001000.000001000.00000
 RFO step:  Lambda=-6.03903377D-03.
 Linear search not attempted -- first point.
 Iteration  1 RMS(Cart)=  0.02134641 RMS(Int)=  0.00062537
 Iteration  2 RMS(Cart)=  0.00064592 RMS(Int)=  0.00008750
 Iteration  3 RMS(Cart)=  0.00000100 RMS(Int)=  0.00008749
 Variable       Old X    -DE/DX   Delta X   Delta X   Delta X     New X
                                 (Linear)    (Quad)   (Total)
    R1        4.60208   0.00146   0.00000   0.01949   0.01954   4.62162
    R2        4.11610   0.00894   0.00000   0.08954   0.08952   4.20562
    R3        4.11577   0.00389   0.00000   0.03649   0.03653   4.15229
    R4        4.38045   0.00851   0.00000   0.09414   0.09401   4.47447
    R5        4.94835  -0.00143   0.00000   0.01942   0.01947   4.96781
    R6        3.25747  -0.00251   0.00000  -0.00740  -0.00742   3.25005
    R7        1.82519  -0.00048   0.00000  -0.00088  -0.00088   1.82431
    R8        3.02650   0.00102   0.00000   0.00172   0.00173   3.02823
    R9        3.02639  -0.00248   0.00000  -0.00495  -0.00492   3.02147
   R10        2.77703   0.00026   0.00000   0.00138   0.00138   2.77841
   R11        3.05544   0.00049   0.00000   0.00150   0.00143   3.05687
   R12        3.05575   0.00207   0.00000   0.00418   0.00418   3.05994
   R13        2.78350   0.00040   0.00000   0.00215   0.00215   2.78564
   R14        3.15165  -0.00102   0.00000  -0.00266  -0.00264   3.14902
   R15        3.18773  -0.00097   0.00000  -0.00262  -0.00261   3.18512
   R16        2.78348   0.00033   0.00000   0.00178   0.00178   2.78526
   R17        3.15164   0.00191   0.00000   0.00460   0.00461   3.15625
   R18        3.18767   0.00068   0.00000   0.00227   0.00224   3.18991
   R19        3.16414  -0.00061   0.00000  -0.00096  -0.00103   3.16311
   R20        3.16394  -0.00076   0.00000  -0.00190  -0.00190   3.16204
   R21        3.08762   0.00149   0.00000   0.00305   0.00308   3.09070
   R22        3.08760  -0.00095   0.00000  -0.00211  -0.00210   3.08551
   R23        3.06422  -0.00052   0.00000  -0.00045  -0.00051   3.06372
   R24        3.06433   0.00139   0.00000   0.00285   0.00287   3.06719
   R25        3.10603   0.00058   0.00000   0.00159   0.00158   3.10762
   R26        2.76976   0.00014   0.00000   0.00072   0.00072   2.77048
   R27        3.10598  -0.00022   0.00000  -0.00043  -0.00042   3.10555
   R28        2.76978   0.00009   0.00000   0.00048   0.00048   2.77026
   R29        3.12106  -0.00071   0.00000  -0.00148  -0.00149   3.11957
   R30        3.12104   0.00001   0.00000   0.00019   0.00020   3.12124
   R31        3.09183  -0.00018   0.00000  -0.00044  -0.00044   3.09138
   R32        2.76834   0.00006   0.00000   0.00032   0.00032   2.76866
   R33        3.14048  -0.00004   0.00000  -0.00028  -0.00027   3.14022
   R34        2.77245   0.00011   0.00000   0.00056   0.00056   2.77300
   R35        1.88967  -0.01707   0.00000  -0.03990  -0.03972   1.84995
   R36        1.88968  -0.03420   0.00000  -0.07081  -0.07081   1.81886
    A1        1.83915  -0.00009   0.00000  -0.00588  -0.00587   1.83329
    A2        1.83983  -0.00046   0.00000   0.00116   0.00094   1.84077
    A3        1.89253   0.00112   0.00000   0.01482   0.01444   1.90696
    A4        1.94987  -0.00022   0.00000  -0.00348  -0.00367   1.94620
    A5        2.13266   0.00032   0.00000  -0.00871  -0.00862   2.12404
    A6        1.32595  -0.00350   0.00000  -0.02226  -0.02228   1.30367
    A7        0.93641   0.00005   0.00000  -0.01338  -0.01312   0.92328
    A8        2.35197   0.00181   0.00000   0.01169   0.01138   2.36335
    A9        2.48266   0.00066   0.00000   0.00752   0.00727   2.48993
   A10        2.07441   0.00045   0.00000   0.00203   0.00210   2.07651
   A11        2.23967  -0.00093   0.00000  -0.00531  -0.00535   2.23432
   A12        1.96894   0.00048   0.00000   0.00322   0.00318   1.97213
   A13        2.37428  -0.00209   0.00000  -0.00848  -0.00853   2.36574
   A14        2.37425  -0.00044   0.00000  -0.00333  -0.00331   2.37094
   A15        1.84215   0.00038   0.00000   0.00228   0.00230   1.84445
   A16        1.85101   0.00047   0.00000   0.00320   0.00321   1.85421
   A17        1.85181  -0.00005   0.00000   0.00308   0.00303   1.85484
   A18        1.96769  -0.00016   0.00000  -0.00149  -0.00154   1.96615
   A19        1.96680  -0.00041   0.00000  -0.00511  -0.00510   1.96170
   A20        1.97131  -0.00012   0.00000  -0.00075  -0.00073   1.97058
   A21        2.01176  -0.00051   0.00000  -0.00318  -0.00320   2.00855
   A22        1.94638   0.00046   0.00000   0.00227   0.00229   1.94867
   A23        1.94162  -0.00035   0.00000  -0.00172  -0.00171   1.93991
   A24        1.87242   0.00024   0.00000   0.00143   0.00145   1.87386
   A25        1.84194   0.00028   0.00000   0.00145   0.00144   1.84338
   A26        1.83857  -0.00009   0.00000   0.00003   0.00000   1.83858
   A27        2.01188   0.00027   0.00000   0.00249   0.00248   2.01436
   A28        1.94643   0.00021   0.00000   0.00333   0.00325   1.94967
   A29        1.94123   0.00061   0.00000   0.00401   0.00412   1.94535
   A30        1.87240  -0.00042   0.00000  -0.00519  -0.00518   1.86723
   A31        1.84212  -0.00042   0.00000  -0.00236  -0.00242   1.83970
   A32        1.83863  -0.00037   0.00000  -0.00329  -0.00329   1.83534
   A33        2.75107   0.00004   0.00000   0.00075   0.00078   2.75185
   A34        2.75126   0.00001   0.00000   0.00010   0.00008   2.75134
   A35        2.76255   0.00020   0.00000   0.00176   0.00175   2.76429
   A36        2.76250   0.00028   0.00000   0.00305   0.00304   2.76554
   A37        2.51082  -0.00030   0.00000  -0.00054  -0.00054   2.51028
   A38        2.51082   0.00008   0.00000   0.00046   0.00048   2.51130
   A39        1.91108   0.00006   0.00000   0.00319   0.00312   1.91420
   A40        1.87192  -0.00008   0.00000  -0.00085  -0.00085   1.87107
   A41        1.87831   0.00016   0.00000   0.00019   0.00021   1.87852
   A42        1.96537   0.00007   0.00000   0.00013   0.00017   1.96554
   A43        1.93037   0.00005   0.00000   0.00010   0.00010   1.93047
   A44        1.90393  -0.00027   0.00000  -0.00280  -0.00279   1.90114
   A45        1.91060   0.00087   0.00000   0.00614   0.00613   1.91673
   A46        1.87191  -0.00016   0.00000  -0.00004  -0.00004   1.87187
   A47        1.87858   0.00016   0.00000   0.00034   0.00036   1.87893
   A48        1.96549  -0.00027   0.00000  -0.00119  -0.00120   1.96428
   A49        1.93045  -0.00048   0.00000  -0.00389  -0.00390   1.92655
   A50        1.90395  -0.00009   0.00000  -0.00116  -0.00117   1.90278
   A51        2.58250   0.00013   0.00000  -0.00025  -0.00027   2.58223
   A52        2.58240   0.00003   0.00000  -0.00079  -0.00080   2.58160
   A53        1.88747   0.00020   0.00000   0.00098   0.00099   1.88846
   A54        1.92995   0.00002   0.00000  -0.00017  -0.00017   1.92978
   A55        1.89789  -0.00009   0.00000   0.00060   0.00059   1.89849
   A56        1.92997  -0.00009   0.00000  -0.00060  -0.00061   1.92936
   A57        1.89785  -0.00009   0.00000  -0.00076  -0.00075   1.89709
   A58        1.91989   0.00005   0.00000  -0.00004  -0.00003   1.91987
   A59        2.53935   0.00002   0.00000  -0.00086  -0.00086   2.53849
   A60        1.94437   0.00101   0.00000   0.00761   0.00762   1.95198
   A61        1.90128  -0.00029   0.00000  -0.00181  -0.00181   1.89947
   A62        1.91597  -0.00056   0.00000  -0.00437  -0.00439   1.91158
   A63        1.90127  -0.00016   0.00000  -0.00009  -0.00009   1.90117
   A64        1.91595   0.00012   0.00000   0.00032   0.00033   1.91629
   A65        1.88387  -0.00015   0.00000  -0.00194  -0.00196   1.88191
   A66        2.63072   0.00700   0.00000   0.05428   0.05454   2.68526
   A67        1.97180  -0.00625   0.00000  -0.02539  -0.02513   1.94668
    D1       -1.13850  -0.00051   0.00000   0.00394   0.00395  -1.13456
    D2        1.98219  -0.00080   0.00000   0.00010   0.00009   1.98227
    D3        1.13853  -0.00046   0.00000  -0.00930  -0.00923   1.12930
    D4       -2.02396  -0.00075   0.00000  -0.01313  -0.01310  -2.03706
    D5       -2.53508   0.00303   0.00000   0.02635   0.02663  -2.50845
    D6        0.58561   0.00275   0.00000   0.02252   0.02277   0.60838
    D7       -2.12439  -0.00053   0.00000   0.02033   0.02004  -2.10436
    D8        0.99630  -0.00081   0.00000   0.01650   0.01618   1.01247
    D9        1.44832  -0.00038   0.00000  -0.00875  -0.00873   1.43960
   D10       -0.64476   0.00011   0.00000   0.00079   0.00086  -0.64389
   D11       -2.99138   0.00006   0.00000   0.00313   0.00300  -2.98837
   D12       -2.98636  -0.00059   0.00000  -0.01006  -0.01014  -2.99650
   D13       -1.44781   0.00074   0.00000   0.01595   0.01593  -1.43188
   D14        0.64495   0.00042   0.00000   0.00303   0.00301   0.64796
   D15        2.43845  -0.00343   0.00000  -0.03374  -0.03406   2.40439
   D16        1.87848   0.00101   0.00000  -0.02739  -0.02728   1.85120
   D17       -1.21131  -0.00187   0.00000  -0.03037  -0.03066  -1.24197
   D18       -2.98836  -0.00056   0.00000  -0.01491  -0.01491  -3.00327
   D19        1.17062   0.00195   0.00000   0.01645   0.01676   1.18738
   D20        3.14130  -0.00019   0.00000   0.00070   0.00065   3.14195
   D21       -1.05028   0.00004   0.00000   0.00166   0.00159  -1.04869
   D22        1.05031   0.00011   0.00000   0.00396   0.00390   1.05421
   D23        0.01749   0.00007   0.00000   0.00406   0.00405   0.02155
   D24        2.10910   0.00030   0.00000   0.00502   0.00499   2.11410
   D25       -2.07349   0.00037   0.00000   0.00732   0.00730  -2.06619
   D26        2.80823   0.00013   0.00000   0.00228   0.00225   2.81048
[...]
 9,0.00018251,0.00038591,0.00038048,0.00006626,0.00041731,-0.00014163,-
 0.00020024,-0.00150458,0.00055587,-0.00156301,-0.00019502,-0.00086338,
 -0.00014367,-0.00196449,0.00014596,0.00105881,0.00018285,-0.00001276,-
 0.00011007,-0.00000876,0.00009385,0.00001823,0.00014344,-0.00006565,0.
 00014655,0.00039694,-0.00244408,0.00072225,0.00171847,0.00115918,0.000
 08564,-0.00017697,0.00087965,0.00001995,0.00163569,0.00093423,0.000891
 89,0.00037329,-0.00090186,-0.00211965,-0.00017843,0.00072648,0.0002230
 4,0.00213728,0.00353268,0.00270921,0.00005316,-0.00238811,0.00079012,-
 0.00764335,-0.01627495,-0.00510078,0.00165694,0.00969929,-0.00356108,-
 0.02488179,0.00381387,0.00122780,0.00150173,0.00723911,0.00766933,0.00
 041061,-0.00191281,-0.00187164,-0.00003879,0.00025875,-0.00015662,-0.0
 0038813,-0.00038749,-0.00022026,0.02620902,0.00002145,0.00024015,0.000
 19718,-0.00005070,-0.00029236,-0.00005123,-0.00000804,-0.00027883,-0.0
 0017920,-0.00001453,-0.00008921,-0.00016828,0.00053345,0.00060650,-0.0
 0006849,-0.00020473,0.00043522,0.00075966,-0.00004719,0.00012160,0.000
 52299,-0.00001049,0.00001074,-0.00007647,0.00006653,-0.00004418,-0.000
 07696,-0.00007056,-0.00006278,0.00002583,-0.00016423,-0.00054450,-0.00
 001270,-0.00067492,-0.00082942,0.00018008,0.00003642,0.00002369,-0.000
 26940,-0.00012041,-0.00008295,-0.00031114,-0.00008282,-0.00020126,-0.0
 0084392,0.00060914,-0.00099938,-0.00061340,0.00130807,0.00136796,0.001
 35753,-0.00064494,0.00291425,-0.00120476,-0.00467163,-0.00396947,-0.00
 273603,0.00370013,-0.00880372,0.00351472,0.00397533,-0.18336368,-0.041
 52424,0.00093805,0.00036835,-0.00263873,-0.00030310,0.00063722,0.00100
 501,0.00011592,-0.00029155,0.00023512,-0.00025348,-0.00014202,-0.00009
 869,-0.00407064,0.19318347,0.00001124,0.00022859,-0.00035981,0.0001013
 9,0.00016072,0.00027595,0.00001570,-0.00015685,0.00049219,-0.00018110,
 -0.00043093,0.00016314,-0.00097476,-0.00031916,-0.00114796,-0.00024822
 ,0.00061954,-0.00260864,0.00120367,0.00076053,-0.00008961,-0.00013020,
 -0.00005915,-0.00002138,0.00003550,-0.00007317,0.00025234,0.00009846,0
 .00001810,0.00010728,0.00026022,-0.00059278,0.00062673,0.00113936,0.00
 122674,0.00010068,0.00113527,-0.00263332,0.00116551,-0.00116550,-0.001
 10835,-0.00099869,-0.00030049,-0.00006007,0.00054290,-0.00103465,0.001
 61018,0.00160394,0.00035951,0.00069206,0.00004013,0.00053458,-0.003463
 59,0.00089353,-0.00097810,-0.00210973,0.00428064,-0.00475304,0.0140796
 8,-0.00081333,0.00093777,-0.04156511,-0.03542029,0.00600322,-0.0136659
 4,-0.00930910,-0.00103990,0.00376077,0.00296990,-0.00009873,0.00036794
 ,-0.00014320,-0.00007940,-0.00007592,-0.00000909,-0.00107933,0.0432114
 1,0.03787130,-0.00068192,0.00048367,-0.00057423,0.00016537,-0.00016045
 ,0.00005409,0.00061080,0.00092034,-0.00010727,-0.00055845,-0.00182514,
 0.00037365,-0.00039914,0.00031451,-0.00049080,0.00030120,-0.00118238,0
 .00141741,0.00440712,0.00211539,0.00039140,-0.00046305,-0.00012900,-0.
 00018319,0.00005583,0.00007623,-0.00009778,0.00003507,-0.00003406,0.00
 006523,0.00023198,-0.00046347,0.00062705,0.00038697,-0.00005943,0.0000
 8346,0.00501801,0.00529699,-0.00440820,-0.01378158,-0.00908825,0.00045
 657,-0.00129157,0.00005395,0.00132759,0.00039610,-0.00030614,-0.000909
 34,0.00009402,0.00035420,-0.00141139,-0.00094703,0.00084465,0.00022920
 ,-0.00009428,-0.00001012,0.00048817,0.00050807,-0.00079830,0.00093676,
 0.00041160,-0.00003037,-0.00195340,-0.00058492,0.00045362,0.00715934,-
 0.10343984,-0.04890998,0.06607278,0.00009675,-0.00008695,-0.00001230,-
 0.00003581,-0.00003276,0.00016559,-0.00006265,0.00008607,0.00022349,0.
 10963084,0.00070920,0.00025254,-0.00013187,-0.00019572,0.00012941,0.00
 016956,-0.00038034,-0.00165526,0.00054465,-0.00039683,-0.00005065,-0.0
 0004631,0.00023843,-0.00033973,-0.00014184,-0.00209193,0.00345047,-0.0
 0373769,0.00170725,0.00093559,-0.00001503,-0.00023668,-0.00005067,-0.0
 0010751,0.00021603,-0.00023714,0.00027298,-0.00003135,0.00002854,0.000
 01601,-0.00019794,0.00045285,0.00010633,-0.00018332,0.00032364,0.00013
 561,-0.00189236,-0.00948144,0.01298185,-0.00693976,0.00149305,0.000556
 77,-0.00071862,0.00036947,0.00104852,-0.00031827,0.00063808,0.00229949
 ,-0.00043950,-0.00127910,-0.00101283,0.00111056,-0.00195772,-0.0005990
 3,0.00166706,0.00092452,-0.00020913,-0.00056666,0.00148229,-0.00139575
 ,-0.00118346,-0.00048546,0.00285681,0.00743007,0.00195582,-0.01122948,
 -0.04967975,-0.05629327,0.04199182,-0.00011219,0.00019762,0.00006183,0
 .00004184,0.00014390,0.00010594,0.00015849,-0.00002166,-0.00034454,0.0
 5225045,0.05888991,-0.00052197,0.00000362,-0.00064766,0.00013182,0.000
 12730,0.00005120,0.00039906,0.00145600,-0.00016504,-0.00034543,-0.0009
 5278,0.00048116,-0.00048504,-0.00028124,-0.00019350,0.00138909,-0.0022
 0624,0.00198848,0.00243004,0.00109016,-0.00032104,-0.00025489,-0.00010
 562,-0.00000136,-0.00018985,0.00018049,-0.00006834,0.00005145,0.000022
 88,0.00002031,0.00028435,0.00013750,0.00038257,0.00050405,0.00035164,-
 0.00005888,0.00174785,0.00883238,-0.00322766,-0.01016559,-0.00465828,0
 .00374820,-0.00097989,0.00040298,0.00166065,0.00000101,0.00020566,-0.0
 0054191,-0.00099207,-0.00095945,-0.00178829,-0.00028926,-0.00071785,0.
 00079097,0.00208360,0.00098129,-0.00012672,-0.00008781,0.00059041,-0.0
 0109058,-0.00176160,-0.00005758,0.00349927,0.01011235,-0.00184635,-0.0
 0936247,0.06655129,0.04174807,-0.08071604,0.00001066,0.00006629,-0.000
 10803,0.00011473,0.00008581,0.00018930,0.00020626,-0.00014000,-0.00044
 562,-0.06994159,-0.04414295,0.08604897,0.00236444,-0.00046491,0.000409
 26,-0.25699220,0.19549194,-0.17888985,0.00053157,0.00145806,-0.0022127
 1,-0.00031167,0.00002750,0.00013754,-0.00056599,0.00267928,-0.00212690
 ,-0.00085036,-0.00239436,0.00047610,0.00059496,-0.00002106,-0.00032112
 ,-0.00005250,0.00000225,0.00003063,0.00012947,0.00019383,-0.00000595,0
 .00036570,-0.00026486,0.00049416,0.00169413,-0.00394636,0.00211754,-0.
 00348030,-0.00134794,-0.00061450,-0.00033250,0.00121716,-0.00064235,-0
 .00051493,-0.00004366,-0.00012392,-0.00022529,-0.00009202,0.00062084,-
 0.00027902,0.00120099,0.00045504,0.00040933,0.00099160,-0.00050190,0.0
 0196966,-0.00118225,-0.00069128,-0.00062424,-0.00049863,-0.00004442,-0
 .00049584,0.00024856,-0.00005872,0.00073860,-0.00002287,-0.00003265,-0
 .00031717,0.00024206,0.00018205,0.00070364,-0.00069444,0.00036873,-0.0
 0018951,0.00008508,0.00005577,0.00005982,-0.00018279,0.00009909,-0.000
 06823,0.00000114,-0.00000085,-0.00005867,0.00007690,-0.00004523,0.2564
 5300,-0.00013215,0.00172628,0.00133814,0.17578552,-0.15559615,0.113911
 75,0.00101669,-0.00138617,-0.00158829,-0.00005658,-0.00007388,-0.00023
 861,0.01640680,-0.01524212,0.01094403,-0.00067032,0.00007889,0.0013726
 0,0.00015685,0.00008939,0.00022336,-0.00002586,0.00000102,-0.00003535,
 0.00013063,-0.00002833,-0.00008579,-0.00054201,0.00001460,-0.00068173,
 0.00111345,-0.00305125,0.00072566,0.00158154,0.00579432,0.00032741,-0.
 00002817,0.00020508,-0.00045605,-0.00018670,-0.00006146,-0.00020688,-0
 .00001878,-0.00007917,-0.00014229,0.00110661,0.00001569,-0.00104317,0.
 00023309,0.00014900,0.00044297,-0.00351246,-0.00269243,0.00081454,-0.0
 0044526,-0.00010374,-0.00033313,0.00006155,0.00138843,-0.00086102,0.00
 052714,-0.00065305,0.00093891,0.00004200,0.00003752,-0.00041915,0.0000
 8451,-0.00009833,0.00055060,0.00032087,0.00019827,0.00002008,0.0000146
 3,-0.00001827,-0.00002905,-0.00005741,0.00007982,-0.00007554,0.0000078
 9,0.00001837,-0.00005732,-0.19301836,0.16890237,-0.00319133,0.00336035
 ,-0.00463946,-0.18167242,0.13087289,-0.14159466,-0.00271018,-0.0022203
 4,0.00144099,0.00032016,-0.00048361,0.00029530,0.00651438,-0.00694939,
 0.00310800,0.00142121,0.00269290,0.00104099,-0.00026601,0.00044886,0.0
 0007973,0.00003678,-0.00006153,0.00000894,-0.00025723,-0.00025727,-0.0
 0011813,0.00009729,-0.00150526,-0.00158136,-0.00041321,0.00104570,0.00
 014939,-0.00008654,0.00051032,-0.00160237,0.00006423,-0.00112171,0.000
 31184,0.00011280,-0.00016491,0.00004427,0.00016328,-0.00016811,-0.0002
 7236,0.00019038,-0.00081254,-0.00133155,-0.00002631,0.00001061,0.00051
 009,-0.00100520,-0.00021475,0.00125063,0.00007572,0.00010196,-0.000151
 84,0.00009124,0.00015844,-0.00034708,-0.00012623,0.00003767,0.00041980
 ,0.00018496,-0.00028179,-0.00031060,-0.00031848,0.00073762,-0.00011184
 ,0.00006898,0.00004419,-0.00014474,-0.00002531,0.00001264,-0.00005036,
 0.00001319,-0.00000077,-0.00003750,0.00002072,-0.00007952,0.00002710,0
 .18043601,-0.12613467,0.14301912,-0.01101228,0.00724299,-0.00204348,0.
 00073692,0.00234897,0.00120467,0.00104115,-0.02005139,-0.00421457,0.00
 052437,0.00238557,-0.00069993,-0.00167489,-0.00210855,-0.00077292,0.00
 563291,0.00732947,0.00058448,-0.00124358,-0.00212313,-0.00009597,0.000
 08953,0.00024468,-0.00001364,-0.00034755,-0.00052669,-0.00006651,0.000
 08169,0.00022841,0.00007964,0.00038335,0.00093829,0.00040661,0.0019851
 5,0.00077303,-0.00001637,0.00057116,-0.00372141,0.00210303,0.00178245,
 0.00063345,0.00068035,0.00015474,0.00054459,0.00028941,0.00028165,-0.0
 0249575,-0.00286109,-0.00055964,-0.00094255,-0.00037671,-0.00257958,0.
 00109731,0.00162525,0.00087189,0.00049267,0.00021095,0.00071361,-0.000
 63450,0.00009067,-0.00119133,0.00027878,-0.00004433,0.00063865,-0.0005
 3859,-0.00016686,-0.00222659,0.00179656,-0.00155571,0.00024149,-0.0000
 9297,-0.00019296,0.00004996,0.00008388,0.00002298,0.00010506,-0.000038
 17,0.00000284,0.00019999,-0.00022291,0.00018900,-0.00072830,-0.0005654
 0,-0.00030632,0.37478492,0.00700817,-0.02637627,-0.00090156,0.00152341
 ,0.00035995,-0.00184307,-0.01685559,-0.03560975,-0.01035486,0.00144341
 ,-0.00119538,0.00197137,-0.00140264,0.00004168,0.00143273,0.00793563,0
 .00809493,0.00086755,-0.00104584,0.00135917,-0.00072563,0.00015533,-0.
 00021256,0.00019417,-0.00127098,-0.00073781,-0.00005092,0.00020394,-0.
 00000551,-0.00016855,0.00115750,-0.00095360,-0.00069877,0.00091054,-0.
 00001407,-0.00076921,-0.00008256,-0.00491755,0.00252434,0.00072030,-0.
 00044451,0.00064502,0.00055361,-0.00044474,-0.00008550,-0.00042967,-0.
 00355109,-0.00421669,-0.00106281,0.00104193,-0.00009603,-0.00187572,0.
 00182165,0.00240748,0.00038101,-0.00033631,-0.00006391,0.00053211,-0.0
 0100117,-0.00012473,-0.00068501,0.00097940,0.00027160,0.00051104,-0.00
 100164,-0.00037946,-0.00141282,0.00287870,-0.00153288,0.00015355,-0.00
 014832,-0.00033998,0.00017563,-0.00010636,-0.00000577,0.00005443,-0.00
 013576,-0.00004024,0.00007071,-0.00035136,0.00024935,-0.00037254,-0.00
 102206,0.00084496,0.00666145,0.55946861,0.00095838,-0.00482576,-0.0079
 6408,0.00128598,-0.00280938,-0.00063545,-0.00463310,-0.01349989,0.0042
 2383,-0.00050798,0.00226671,0.00076243,-0.00082905,0.00266136,-0.00044
 326,0.00212720,0.00234946,-0.00060228,-0.00015733,-0.00208208,-0.00068
 765,0.00001209,0.00021763,0.00004556,-0.00038721,-0.00024336,0.0000958
 9,0.00014931,-0.00029552,0.00001243,0.00056765,-0.00094953,0.00118757,
 -0.00013039,-0.00077799,-0.00006461,0.00020625,-0.00217858,0.00170103,
 0.00090774,0.00065325,0.00064504,-0.00026710,0.00056232,0.00113904,-0.
 00014909,-0.00077377,-0.00040303,-0.00042239,0.00046480,-0.00133737,-0
 .00008897,0.00118977,0.00010653,0.00025718,-0.00005897,0.00032839,0.00
 026227,-0.00067669,0.00039357,-0.00032375,0.00036418,-0.00059272,0.000
 10307,-0.00008709,0.00043389,-0.00109219,0.00041646,-0.00148388,0.0000
 0439,-0.00010604,-0.00002759,0.00004766,-0.00006136,0.00013149,0.00002
 551,-0.00004319,0.00004968,0.00009011,-0.00008282,0.00017988,-0.000604
 93,0.00119280,0.00119904,-0.02200708,0.27965349,0.16968542,-0.00714226
 ,0.01170753,-0.00139475,0.00007378,-0.00188936,-0.00090374,-0.00843662
 ,0.01072355,0.00088989,-0.00007536,-0.00151966,0.00053152,0.00113461,0
 .00183581,0.00032201,-0.00569624,-0.00778946,-0.00096850,0.00086199,0.
 00129911,0.00019249,-0.00007626,-0.00015213,-0.00000643,0.00013232,0.0
 0049686,0.00006864,-0.00005362,-0.00021536,-0.00005275,-0.00030644,-0.
 00061244,-0.00007747,-0.00140151,-0.00059032,0.00012255,-0.00025724,0.
 00301264,-0.00175646,-0.00120587,-0.00036769,-0.00054275,-0.00011731,-
 0.00031808,-0.00019616,-0.00017933,0.00175415,0.00220410,0.00042258,0.
 00047639,0.00022511,0.00187650,-0.00084466,-0.00137165,-0.00058589,-0.
 00028237,-0.00011653,-0.00050820,0.00048785,-0.00000798,0.00082304,-0.
 00028521,-0.00003097,-0.00046695,0.00046247,0.00014916,0.00161843,-0.0
 0149207,0.00123495,-0.00017497,0.00007245,0.00016021,-0.00004049,-0.00
 003976,-0.00000998,-0.00007271,0.00003847,0.00000433,-0.00013892,0.000
 19025,-0.00015726,0.00004233,0.00066674,0.00073257,-0.26025939,-0.1657
 0340,-0.07056667,0.26394060,0.01225395,0.00596033,0.00359015,-0.001414
 61,-0.00249530,0.00011521,0.00563065,0.01860952,0.00408606,-0.00105375
 ,-0.00131838,-0.00067732,0.00248635,0.00184286,-0.00041731,-0.01143283
 ,-0.01365052,-0.00157419,0.00175218,0.00102721,0.00070208,-0.00017820,
 -0.00008584,-0.00013063,0.00166650,0.00117681,0.00011272,-0.00019834,-
 0.00021470,0.00003326,-0.00115611,-0.00014244,0.00008159,-0.00235059,-
 0.00061045,0.00066824,-0.00025835,0.00765064,-0.00414111,-0.00205043,-
 0.00022449,-0.00117012,-0.00046062,-0.00018876,-0.00029395,0.00027586,
 0.00516075,0.00606756,0.00119295,0.00000294,0.00046471,0.00363164,-0.0
 0239959,-0.00336806,-0.00099958,-0.00013478,-0.00014039,-0.00100761,0.
 00136056,0.00003310,0.00150652,-0.00102832,-0.00013992,-0.00092188,0.0
 0126386,0.00037781,0.00304199,-0.00382651,0.00274897,-0.00031977,0.000
 20170,0.00045916,-0.00015537,0.00001448,-0.00002503,-0.00013088,0.0001
 4188,0.00002553,-0.00022376,0.00048009,-0.00040696,0.00052373,0.001472
 76,-0.00007992,-0.11996274,-0.14705232,-0.05811064,0.13228363,0.141541
 35,-0.00230878,0.00428544,0.00585484,-0.00105097,0.00057802,0.00001939
 ,0.00128457,0.00685886,-0.00856747,0.00026205,-0.00117057,-0.00009793,
 0.00082531,-0.00089890,0.00021603,-0.00298140,-0.00315776,-0.00054039,
 0.00032576,0.00114767,0.00040788,-0.00002975,-0.00011962,-0.00003270,0
 .00044469,0.00029695,-0.00003798,-0.00009607,0.00010321,-0.00001099,-0
 .00039184,0.00030570,-0.00059786,-0.00036633,0.00025454,0.00006068,0.0
 0004603,0.00304211,-0.00172010,-0.00074635,-0.00034977,-0.00050318,0.0
 0003653,-0.00027328,-0.00053135,-0.00015812,0.00058444,0.00051423,0.00
 035725,-0.00012867,0.00063110,0.00050072,-0.00097318,-0.00045319,-0.00
 029711,-0.00002454,-0.00015819,-0.00026468,0.00050677,-0.00016287,0.00
 041106,-0.00031239,0.00019692,-0.00023406,0.00027741,-0.00011065,0.001
 12436,-0.00083267,0.00122391,-0.00003616,0.00008844,0.00005560,-0.0000
 4456,0.00002359,-0.00005785,-0.00003392,0.00004113,-0.00001427,-0.0000
 8795,0.00013222,-0.00017576,0.00100170,-0.00021841,-0.00076804,-0.0461
 4264,-0.05767504,-0.04290654,0.06338407,0.05693578,0.05367598,-0.00003
 367,0.00057231,0.00149724,-0.00021645,0.00029726,0.00031788,-0.0018071
 7,-0.00419780,-0.00062882,-0.00014983,-0.00016742,-0.00030187,0.000099
 42,-0.00024195,-0.00002219,0.00068585,-0.00029625,-0.00008035,0.000090
 98,0.00011481,0.00003346,-0.00001343,-0.00000524,-0.00000881,-0.000137
 87,0.00003850,0.00002146,-0.00002195,0.00003027,0.00001158,-0.00009781
 ,0.00013578,-0.00003297,0.00000323,0.00005256,0.00000236,-0.00017728,-
 0.00020320,0.00011640,-0.00011992,-0.00005680,-0.00002871,-0.00000954,
 -0.00003927,-0.00007562,-0.00016217,-0.00010854,-0.00015110,0.00008509
 ,-0.00005685,0.00011342,-0.00001268,-0.00002683,0.00006076,-0.00004474
 ,-0.00000480,-0.00002917,-0.00002143,0.00002827,-0.00002887,0.00004828
 ,-0.00000551,0.00003051,-0.00002076,-0.00000561,-0.00001049,0.00007564
 ,0.00001404,0.00001404,0.00000154,0.00000340,-0.00000930,-0.00001232,0
 .00000473,-0.00001054,-0.00000488,0.00000044,-0.00000230,-0.00001190,-
 0.00000894,0.00001088,0.00003006,0.00000295,-0.00013914,-0.10904750,0.
 16204783,0.09516246,0.01626940,-0.02197054,-0.01473339,0.09473382,0.00
 051217,-0.00156410,-0.00136988,-0.00030124,0.00044173,0.00045663,-0.00
 133529,-0.00099149,0.00018038,-0.00033758,0.00064227,-0.00010390,0.000
 09498,-0.00039887,-0.00026801,-0.00034074,-0.00093901,-0.00045801,0.00
 013709,-0.00060204,0.00003871,-0.00002381,0.00007277,-0.00003126,0.000
 01692,0.00006430,0.00005023,-0.00003524,0.00004688,0.00003963,-0.00010
 961,0.00019747,0.00008740,0.00006949,0.00012551,0.00012717,-0.00000379
 ,0.00023002,0.00003485,0.00006635,0.00020473,0.00002094,-0.00013790,0.
 00019351,0.00016112,-0.00001459,0.00017497,0.00023278,0.00012054,-0.00
 021751,-0.00013912,-0.00002185,-0.00018547,-0.00019327,0.00001580,0.00
 010348,0.00006230,-0.00000436,0.00009340,0.00004414,0.00001522,-0.0001
 4335,-0.00010625,-0.00003788,0.00014425,0.00011417,-0.00003295,-0.0003
 5752,-0.00005909,0.00000633,0.00001648,0.00003042,-0.00002641,0.000022
 55,0.00001652,-0.00000166,0.00002188,0.00001257,0.00001188,0.00003728,
 0.00000080,0.00010700,-0.00006540,-0.00034304,0.12094467,-0.35042789,-
 0.20432956,0.01659402,-0.01453532,-0.00932749,-0.13594758,0.36759449,-
 0.00087659,0.00205586,0.00103353,0.00007344,0.00014477,-0.00013919,-0.
 00026745,0.00020296,0.00029188,0.00009045,-0.00029531,-0.00043739,0.00
 010623,-0.00032272,0.00007705,0.00003513,-0.00033362,0.00057393,-0.000
 06742,0.00033829,0.00022239,0.00000162,-0.00002751,-0.00002758,0.00000
 137,0.00003484,-0.00007307,-0.00001292,0.00002201,-0.00001257,-0.00012
 072,0.00026039,-0.00015286,0.00002714,0.00012597,-0.00003136,-0.000059
 50,0.00008659,-0.00023952,-0.00009210,-0.00011166,-0.00013840,0.000083
 12,-0.00009853,-0.00027868,0.00001248,0.00011873,-0.00009346,0.0000680
 2,-0.00015974,0.00031302,-0.00000535,-0.00022004,0.00009478,-0.0000150
 5,0.00003387,-0.00007799,-0.00004884,0.00014027,-0.00011760,0.00001095
 ,-0.00006581,0.00019348,0.00003534,-0.00004046,-0.00016029,0.00007325,
 0.00006219,0.00028762,-0.00000005,0.00002210,-0.00001029,-0.00000683,0
 .00001765,-0.00003236,-0.00000024,0.00000691,-0.00001734,-0.00000514,-
 0.00000407,-0.00002915,0.00003281,-0.00019640,0.00015667,0.07408722,-0
 .21098928,-0.12517223,0.00793842,-0.00582638,-0.00540928,-0.08109880,0
 .21501815,0.12940624\\-0.00002253,0.00000946,-0.00008303,-0.00003961,-
 0.00006190,-0.00001674,0.00000151,0.00002924,0.00009439,-0.00007142,-0
 .00000713,0.00004905,0.00001926,0.00000443,0.00001081,-0.00010143,-0.0
 0013383,-0.00004921,-0.00000841,0.00009350,0.00001786,-0.00000461,0.00
 000346,0.00000119,-0.00000200,-0.00000709,-0.00001178,-0.00000101,-0.0
 0000772,-0.00000451,0.00002444,0.00000911,0.00002376,-0.00002358,0.000
 04169,-0.00000940,0.00017357,0.00014671,0.00005372,0.00001963,-0.00012
 286,0.00000220,0.00003743,0.00002357,-0.00003014,0.00004872,0.00009863
 ,-0.00006108,-0.00002991,-0.00000183,0.00001801,-0.00001520,-0.0001101
 2,0.00001348,0.00001698,-0.00003526,0.00000791,0.00005064,0.00005478,0
 .00005720,-0.00006438,0.00001116,-0.00006812,0.00007726,-0.00003767,0.
 00008338,-0.00013836,-0.00000360,-0.00005976,0.00000308,-0.00001332,0.
 00000106,0.00000296,-0.00000348,0.00001417,-0.00000298,-0.00000181,0.0
 0000809,-0.00001687,0.00001297,-0.00000605,0.00004748,0.00003641,-0.00
 001081,0.00003851,-0.00002720,-0.00002602,0.,0.00000280,-0.00000589,-0
 .00001918,-0.00000311,-0.00001374\\\@


 THE MOST SERIOUS THREAT TO THE SURVIVAL OF MANKIND IS NOT NOW
 IGNORANCE IN THE TRADITIONAL SENSE,
 BUT A MORALLY NEUTRAL, AN INSENSITIVE OR INHIBITED HUMAN INTELLIGENCE.

                     -- MARGO JEFFERSON IN NEWSWEEK, SEPTEMBER 2, 1974
 Job cpu time:  1 days 12 hours 29 minutes 31.9 seconds.
 File lengths (MBytes):  RWF=  909 Int=    0 D2E=    0 Chk=   16 Scr=    1
 Normal termination of Gaussian 98.
 Entering Gaussian System, Link 0=g98
 Input=caoh_c6_h2o.gjf
 Output=caoh_c6_h2o.log
 Initial command:
 /home/ugliengo/g98a11/l1.exe /home/ugliengo/g98tmp/Gau-4870.inp -scrdir=/home/ugliengo/g98tmp/
