WARNING: Can't read mpd.hosts for list of hosts, start only on current
Siesta Version: siesta-2.0-release
Architecture  : intel-mkl
Compiler flags: /opt/intel/fce/10.1.012/bin/ifort   -w -mp -O2 -zero -mP2OPT_vec_xform_level=103 -DWXML_INIT_FIX
PARALLEL version

* Running on    8 nodes in parallel
>> Start of run:  26-JAN-2011  11:48:04

                           ***********************       
                           *  WELCOME TO SIESTA  *       
                           ***********************       

reinit: Reading from standard input
************************** Dump of input data file ****************************
# Label
SystemLabel cat
# SCF
SolutionMethod diagon
MaxSCFIterations 500
DM.MixingWeight 0.05
DM.NumberPulay 30
SpinPolarized F
# Basis set
MeshCutoff 400 Ry
# Functional
XC.Functional GGA
XC.Authors RPBE
# I/O
LongOutput true
WriteMDhistory true
WriteMDXmol true
WriteCoorXmol true
WriteCoorCerius true
WriteDM true
%block kgrid_MonkhorstPack
6 0 0 0.0
0 6 0 0.0
0 0 1 0.0
%endblock kgrid_MonkhorstPack
############################################################################################
NumberOfSpecies    3
NumberOfAtoms      14
%block ChemicalSpeciesLabel
    1  1   H
    2  6   C
    3  8   O
%endblock ChemicalSpeciesLabel
%block PAO.BasisSizes
 H DZP
 C DZP
 O DZP
%endblock PAO.BasisSizes
%block GeometryConstraints
  stress 3 4 5
%endblock GeometryConstraints
LatticeConstant    1.00000 Ang
%block LatticeVectors
 14.829829    0.954961    0.000000
  0.950355   15.916955    0.000000
  0.000000    0.000000   40.000000
%endblock LatticeVectors
AtomicCoordinatesFormat Ang
%block AtomicCoordinatesAndAtomicSpecies
    8.51547752   10.04810042   20.89592098   2  C          1
    9.92677945   10.06218112   20.98326953   2  C          2
   10.62490985    8.84974270   21.03874846   2  C          3
    9.92198129    7.63485580   20.99441576   2  C          4
    8.52471794    7.62501609   20.89477777   2  C          5
    7.81570689    8.83894883   20.84822297   2  C          6
   10.59411318   11.25191732   21.00892142   3  O          7
    7.95229759   11.30439961   20.86725629   3  O          8
    9.91843532   11.95725558   20.99030845   1  H          9
   11.71863395    8.88133930   21.11917604   1  H         10
   10.47806118    6.69005059   21.03551021   1  H         11
    7.97825063    6.67385036   20.85595273   1  H         12
    6.71907836    8.84670824   20.76993951   1  H         13
    6.98867372   11.25612657   20.78809981   1  H         14
%endblock AtomicCoordinatesAndAtomicSpecies
************************** End of input data file *****************************

reinit: -----------------------------------------------------------------------
reinit: System Name:                                                            
reinit: -----------------------------------------------------------------------
reinit: System Label: cat                                                         
reinit: -----------------------------------------------------------------------

initatom: Reading input for the pseudopotentials and atomic orbitals ----------
 Species number:            1  Label: H Atomic number:           1
 Species number:            2  Label: C Atomic number:           6
 Species number:            3  Label: O Atomic number:           8
Ground state valence configuration:   1s01
Reading pseudopotential information in formatted form from H.psf
Ground state valence configuration:   2s02  2p02
Reading pseudopotential information in formatted form from C.psf
Ground state valence configuration:   2s02  2p04
Reading pseudopotential information in formatted form from O.psf
resizes: Read basis size for species H = dzp                 
resizes: Read basis size for species C = dzp                 
resizes: Read basis size for species O = dzp                 
For H, standard SIESTA heuristics set lmxkb to 2
 (one more than the basis l, including polarization orbitals).
Use PS.lmax or PS.KBprojectors blocks to override.
For C, standard SIESTA heuristics set lmxkb to 3
 (one more than the basis l, including polarization orbitals).
Use PS.lmax or PS.KBprojectors blocks to override.
For O, standard SIESTA heuristics set lmxkb to 3
 (one more than the basis l, including polarization orbitals).
Use PS.lmax or PS.KBprojectors blocks to override.

<basis_specs>
===============================================================================
H                    Z=   1    Mass=  1.0100        Charge=  0.0000    
Lmxo=0 Lmxkb=2     BasisType=split      Semic=F
L=0  Nsemic=0  Cnfigmx=1
          n=1  nzeta=2  polorb=1
               vcte:    0.0000    
               rinn:    0.0000    
                rcs:    0.0000      0.0000    
            lambdas:    1.0000      1.0000    
-------------------------------------------------------------------------------
L=0  Nkbl=1  erefs: 0.17977+309
L=1  Nkbl=1  erefs: 0.17977+309
L=2  Nkbl=1  erefs: 0.17977+309
===============================================================================
</basis_specs>

atom: Called for H   (Z =   1)

read_vps: Pseudopotential generation method:
read_vps: ATM 3.2.2 Troullier-Martins                       

read_vps: Valence configuration (pseudopotential and basis set generation):
1s( 1.00) rc: 1.33
2p( 0.00) rc: 1.33
3d( 0.00) rc: 0.37
Total valence charge:    1.00000

xc_check: Exchange-correlation functional:
xc_check: GGA RPBE
xc_check: WARNING: Pseudopotential generated with
xc_check:WARNING: GGA Perdew, Burke & Ernzerhof 1996 functional
V l=0 = -2*Zval/r beyond r=  1.2656
V l=1 = -2*Zval/r beyond r=  1.2498
V l=2 = -2*Zval/r beyond r=  0.3563
All V_l potentials equal beyond r=  1.2656
This should be close to max(r_c) in ps generation
All pots = -2*Zval/r beyond r=  1.2656

VLOCAL1: 99.0% of the norm of Vloc inside     27.100 Ry
VLOCAL1: 99.9% of the norm of Vloc inside     61.762 Ry
atom: Maximum radius for 4*pi*r*r*local-pseudopot. charge    1.48935
atom: Maximum radius for r*vlocal+2*Zval:    1.24984
GHOST: No ghost state for L =  0
GHOST: No ghost state for L =  1
GHOST: No ghost state for L =  2

KBgen: Kleinman-Bylander projectors: 
   l= 0   rc=  1.398961   el= -0.485803   Ekb= -2.000785   kbcos= -0.355577
   l= 1   rc=  1.470814   el=  0.001005   Ekb= -0.423466   kbcos= -0.024820
   l= 2   rc=  1.489346   el=  0.001895   Ekb= -0.482530   kbcos= -0.001603

KBgen: Total number of  Kleinman-Bylander projectors:    9
atom: -------------------------------------------------------------------------

atom: SANKEY-TYPE ORBITALS:
atom: Selected multiple-zeta basis: split     

SPLIT: Orbitals with angular momentum L= 0

SPLIT: Basis orbitals for state 1s

SPLIT: PAO cut-off radius determined from an
SPLIT: energy shift=  0.020000 Ry

   izeta = 1
                 lambda =    1.000000
                     rc =    4.708991
                 energy =   -0.466459
                kinetic =    0.995263
    potential(screened) =   -1.461721
       potential(ionic) =   -1.981935

   izeta = 2
                 rmatch =    3.759707
              splitnorm =    0.150000
                 energy =   -0.348774
                kinetic =    1.598461
    potential(screened) =   -1.947235
       potential(ionic) =   -2.483487

POLgen: Perturbative polarization orbital with L=  1

POLgen: Polarization orbital for state 1s

   izeta = 1
                     rc =    4.708991
                 energy =    0.774796
                kinetic =    1.495153
    potential(screened) =   -0.720357
       potential(ionic) =   -1.212714
atom: Total number of Sankey-type orbitals:  5

atm_pop: Valence configuration(local Pseudopot. screening):
 1s( 1.00)                                                            
Vna: chval, zval:    1.00000   1.00000

Vna:  Cut-off radius for the neutral-atom potential:   4.708991

atom: _________________________________________________________________________

<basis_specs>
===============================================================================
C                    Z=   6    Mass=  12.010        Charge=  0.0000    
Lmxo=1 Lmxkb=3     BasisType=split      Semic=F
L=0  Nsemic=0  Cnfigmx=2
          n=1  nzeta=2  polorb=0
               vcte:    0.0000    
               rinn:    0.0000    
                rcs:    0.0000      0.0000    
            lambdas:    1.0000      1.0000    
L=1  Nsemic=0  Cnfigmx=2
          n=1  nzeta=2  polorb=1
               vcte:    0.0000    
               rinn:    0.0000    
                rcs:    0.0000      0.0000    
            lambdas:    1.0000      1.0000    
-------------------------------------------------------------------------------
L=0  Nkbl=1  erefs: 0.17977+309
L=1  Nkbl=1  erefs: 0.17977+309
L=2  Nkbl=1  erefs: 0.17977+309
L=3  Nkbl=1  erefs: 0.17977+309
===============================================================================
</basis_specs>

atom: Called for C   (Z =   6)

read_vps: Pseudopotential generation method:
read_vps: ATM 3.2.2 Troullier-Martins                       

read_vps: Valence configuration (pseudopotential and basis set generation):
2s( 2.00) rc: 1.56
2p( 2.00) rc: 1.56
3d( 0.00) rc: 1.56
4f( 0.00) rc: 1.56
Total valence charge:    4.00000

xc_check: Exchange-correlation functional:
xc_check: GGA RPBE
xc_check: WARNING: Pseudopotential generated with
xc_check:WARNING: GGA Perdew, Burke & Ernzerhof 1996 functional
V l=0 = -2*Zval/r beyond r=  1.5227
V l=1 = -2*Zval/r beyond r=  1.5227
V l=2 = -2*Zval/r beyond r=  1.5227
V l=3 = -2*Zval/r beyond r=  1.5227
All V_l potentials equal beyond r=  1.4851
This should be close to max(r_c) in ps generation
All pots = -2*Zval/r beyond r=  1.5227

VLOCAL1: 99.0% of the norm of Vloc inside     19.682 Ry
VLOCAL1: 99.9% of the norm of Vloc inside     44.856 Ry
atom: Maximum radius for 4*pi*r*r*local-pseudopot. charge    1.79142
atom: Maximum radius for r*vlocal+2*Zval:    1.54183
GHOST: No ghost state for L =  0
GHOST: No ghost state for L =  1
GHOST: No ghost state for L =  2
GHOST: No ghost state for L =  3

KBgen: Kleinman-Bylander projectors: 
   l= 0   rc=  1.661951   el= -1.015953   Ekb=  5.288893   kbcos=  0.316976
   l= 1   rc=  1.661951   el= -0.392297   Ekb= -4.102261   kbcos= -0.352300
   l= 2   rc=  1.747182   el=  0.001971   Ekb= -1.005903   kbcos= -0.008602
   l= 3   rc=  1.791422   el=  0.003065   Ekb= -0.421373   kbcos= -0.001083

KBgen: Total number of  Kleinman-Bylander projectors:   16
atom: -------------------------------------------------------------------------

atom: SANKEY-TYPE ORBITALS:
atom: Selected multiple-zeta basis: split     

SPLIT: Orbitals with angular momentum L= 0

SPLIT: Basis orbitals for state 2s

SPLIT: PAO cut-off radius determined from an
SPLIT: energy shift=  0.020000 Ry

   izeta = 1
                 lambda =    1.000000
                     rc =    4.088342
                 energy =   -0.995742
                kinetic =    0.914363
    potential(screened) =   -1.910106
       potential(ionic) =   -5.521634

   izeta = 2
                 rmatch =    3.347176
              splitnorm =    0.150000
                 energy =   -0.844508
                kinetic =    1.374551
    potential(screened) =   -2.219059
       potential(ionic) =   -6.056482

SPLIT: Orbitals with angular momentum L= 1

SPLIT: Basis orbitals for state 2p

SPLIT: PAO cut-off radius determined from an
SPLIT: energy shift=  0.020000 Ry

   izeta = 1
                 lambda =    1.000000
                     rc =    4.870301
                 energy =   -0.372432
                kinetic =    2.550048
    potential(screened) =   -2.922480
       potential(ionic) =   -6.426438

   izeta = 2
                 rmatch =    3.431921
              splitnorm =    0.150000
                 energy =   -0.203296
                kinetic =    3.831344
    potential(screened) =   -4.034640
       potential(ionic) =   -7.903552

POLgen: Perturbative polarization orbital with L=  2

POLgen: Polarization orbital for state 2p

   izeta = 1
                     rc =    4.870301
                 energy =    1.310747
                kinetic =    2.669470
    potential(screened) =   -1.358724
       potential(ionic) =   -4.325477
atom: Total number of Sankey-type orbitals: 13

atm_pop: Valence configuration(local Pseudopot. screening):
 2s( 2.00)                                                            
 2p( 2.00)                                                            
Vna: chval, zval:    4.00000   4.00000

Vna:  Cut-off radius for the neutral-atom potential:   4.870301

atom: _________________________________________________________________________

<basis_specs>
===============================================================================
O                    Z=   8    Mass=  16.000        Charge=  0.0000    
Lmxo=1 Lmxkb=3     BasisType=split      Semic=F
L=0  Nsemic=0  Cnfigmx=2
          n=1  nzeta=2  polorb=0
               vcte:    0.0000    
               rinn:    0.0000    
                rcs:    0.0000      0.0000    
            lambdas:    1.0000      1.0000    
L=1  Nsemic=0  Cnfigmx=2
          n=1  nzeta=2  polorb=1
               vcte:    0.0000    
               rinn:    0.0000    
                rcs:    0.0000      0.0000    
            lambdas:    1.0000      1.0000    
-------------------------------------------------------------------------------
L=0  Nkbl=1  erefs: 0.17977+309
L=1  Nkbl=1  erefs: 0.17977+309
L=2  Nkbl=1  erefs: 0.17977+309
L=3  Nkbl=1  erefs: 0.17977+309
===============================================================================
</basis_specs>

atom: Called for O   (Z =   8)

read_vps: Pseudopotential generation method:
read_vps: ATM 3.2.2 Troullier-Martins                       

read_vps: Valence configuration (pseudopotential and basis set generation):
2s( 2.00) rc: 1.47
2p( 4.00) rc: 1.47
3d( 0.00) rc: 1.47
4f( 0.00) rc: 1.47
Total valence charge:    6.00000

xc_check: Exchange-correlation functional:
xc_check: GGA RPBE
xc_check: WARNING: Pseudopotential generated with
xc_check:WARNING: GGA Perdew, Burke & Ernzerhof 1996 functional
V l=0 = -2*Zval/r beyond r=  1.3776
V l=1 = -2*Zval/r beyond r=  1.3949
V l=2 = -2*Zval/r beyond r=  1.3776
V l=3 = -2*Zval/r beyond r=  1.3776
All V_l potentials equal beyond r=  1.3776
This should be close to max(r_c) in ps generation
All pots = -2*Zval/r beyond r=  1.3949

VLOCAL1: 99.0% of the norm of Vloc inside     22.873 Ry
VLOCAL1: 99.9% of the norm of Vloc inside     52.129 Ry
atom: Maximum radius for 4*pi*r*r*local-pseudopot. charge    1.66175
atom: Maximum radius for r*vlocal+2*Zval:    1.44823
GHOST: No ghost state for L =  0
GHOST: No ghost state for L =  1
GHOST: No ghost state for L =  2
GHOST: No ghost state for L =  3

KBgen: Kleinman-Bylander projectors: 
   l= 0   rc=  1.541657   el= -1.766409   Ekb=  4.948669   kbcos=  0.327947
   l= 1   rc=  1.522502   el= -0.667930   Ekb= -7.162636   kbcos= -0.479135
   l= 2   rc=  1.620715   el=  0.001915   Ekb= -1.528730   kbcos= -0.006204
   l= 3   rc=  1.661751   el=  0.002982   Ekb= -0.589391   kbcos= -0.000814

KBgen: Total number of  Kleinman-Bylander projectors:   16
atom: -------------------------------------------------------------------------

atom: SANKEY-TYPE ORBITALS:
atom: Selected multiple-zeta basis: split     

SPLIT: Orbitals with angular momentum L= 0

SPLIT: Basis orbitals for state 2s

SPLIT: PAO cut-off radius determined from an
SPLIT: energy shift=  0.020000 Ry

   izeta = 1
                 lambda =    1.000000
                     rc =    3.305093
                 energy =   -1.749134
                kinetic =    1.610904
    potential(screened) =   -3.360038
       potential(ionic) =  -11.351183

   izeta = 2
                 rmatch =    2.479194
              splitnorm =    0.150000
                 energy =   -1.495111
                kinetic =    2.422933
    potential(screened) =   -3.918043
       potential(ionic) =  -12.498061

SPLIT: Orbitals with angular momentum L= 1

SPLIT: Basis orbitals for state 2p

SPLIT: PAO cut-off radius determined from an
SPLIT: energy shift=  0.020000 Ry

   izeta = 1
                 lambda =    1.000000
                     rc =    3.937239
                 energy =   -0.649968
                kinetic =    4.776535
    potential(screened) =   -5.426503
       potential(ionic) =  -13.170863

   izeta = 2
                 rmatch =    2.541963
              splitnorm =    0.150000
                 energy =   -0.378575
                kinetic =    6.998908
    potential(screened) =   -7.377482
       potential(ionic) =  -15.959120

POLgen: Perturbative polarization orbital with L=  2

POLgen: Polarization orbital for state 2p

   izeta = 1
                     rc =    3.937239
                 energy =    2.445532
                kinetic =    4.859743
    potential(screened) =   -2.414211
       potential(ionic) =   -8.772277
atom: Total number of Sankey-type orbitals: 13

atm_pop: Valence configuration(local Pseudopot. screening):
 2s( 2.00)                                                            
 2p( 4.00)                                                            
Vna: chval, zval:    6.00000   6.00000

Vna:  Cut-off radius for the neutral-atom potential:   3.937239

atom: _________________________________________________________________________

prinput: Basis input ----------------------------------------------------------

PAO.BasisType split     

%block ChemicalSpeciesLabel
    1    1 H                       # Species index, atomic number, species label
    2    6 C                       # Species index, atomic number, species label
    3    8 O                       # Species index, atomic number, species label
%endblock ChemicalSpeciesLabel

%block PAO.Basis                 # Define Basis set
H           1                    # Species label, number of l-shells
 n=1   0   2 P   1                   # n, l, Nzeta, Polarization, NzetaPol
   4.709      3.760   
   1.000      1.000   
C           2                    # Species label, number of l-shells
 n=2   0   2                         # n, l, Nzeta 
   4.088      3.347   
   1.000      1.000   
 n=2   1   2 P   1                   # n, l, Nzeta, Polarization, NzetaPol
   4.870      3.432   
   1.000      1.000   
O           2                    # Species label, number of l-shells
 n=2   0   2                         # n, l, Nzeta 
   3.305      2.479   
   1.000      1.000   
 n=2   1   2 P   1                   # n, l, Nzeta, Polarization, NzetaPol
   3.937      2.542   
   1.000      1.000   
%endblock PAO.Basis

prinput: ----------------------------------------------------------------------


siesta: ******************** Simulation parameters ****************************
siesta:
siesta: The following are some of the parameters of the simulation.
siesta: A complete list of the parameters used, including default values,
siesta: can be found in file out.fdf
siesta:
coor:   Atomic-coordinates input format  =     Cartesian coordinates
coor:                                          (in Angstroms)
redata: Number of spin components        =     1
redata: Long output                      =     T
redata: Number of Atomic Species         =     3
redata: Charge density info will appear in .RHO file
redata: Write Mulliken Pop.              =     Atomic and Orbital charges
redata: Mesh Cutoff                      =   400.0000  Ry
redata: Net charge of the system         =     0.0000 |e|
redata: Max. number of SCF Iter          =   500
redata: Performing Pulay mixing using    =    30 iterations
redata: Mix DM in first SCF step ?       =     F
redata: Write Pulay info on disk?        =     F
redata: New DM Mixing Weight             =     0.0500
redata: New DM Occupancy tolerance       = 0.000000000001
redata: No kicks to SCF
redata: DM Mixing Weight for Kicks       =     0.5000
redata: DM Tolerance for SCF             =     0.000100
redata: Require Energy convergence for SCF =     F
redata: DM Energy tolerance for SCF      =     0.000100 eV
redata: Using Saved Data (generic)   =     F
redata: Use continuation files for DM    =     F
redata: Neglect nonoverlap interactions  =     F
redata: Method of Calculation            =     Diagonalization
redata: Divide and Conquer               =     T
redata: Electronic Temperature           =     0.0019  Ry
redata: Fix the spin of the system       =     F
redata: Dynamics option                  =     Verlet MD run
redata: Initial MD time step             =     1
redata:   Final MD time step             =     1
redata: Length of MD time step           =     1.0000  fs
redata: Initial Temperature of MD run    =     0.0000  K
redata: Perform a MD quench              =     F
redata: ***********************************************************************

siesta: Atomic coordinates (Bohr) and species
siesta:     16.09193  18.98817  39.48758  2        1
siesta:     18.75890  19.01477  39.65265  2        2
siesta:     20.07818  16.72360  39.75749  2        3
siesta:     18.74983  14.42779  39.67371  2        4
siesta:     16.10939  14.40920  39.48542  2        5
siesta:     14.76955  16.70320  39.39745  2        6
siesta:     20.01998  21.26305  39.70112  3        7
siesta:     15.02767  21.36223  39.43342  3        8
siesta:     18.74313  22.59595  39.66595  1        9
siesta:     22.14502  16.78331  39.90947  1       10
siesta:     19.80067  12.64237  39.75137  1       11
siesta:     15.07671  12.61175  39.41205  1       12
siesta:     12.69722  16.71786  39.24951  1       13
siesta:     13.20668  21.27100  39.28383  1       14

initatomlists: Number of atoms, orbitals, and projectors:     14   134   182

siesta: System type = molecule  

* ProcessorY, Blocksize:    2  17


siesta: k-point coordinates (Bohr**-1) and weights:
siesta:    1   -0.075023    0.004479    0.000000       0.027778
siesta:    2   -0.037512    0.002240    0.000000       0.027778
siesta:    3    0.000000    0.000000    0.000000       0.027778
siesta:    4    0.037512   -0.002240    0.000000       0.027778
siesta:    5    0.075023   -0.004479    0.000000       0.027778
siesta:    6    0.112535   -0.006719    0.000000       0.027778
siesta:    7   -0.077274    0.039429    0.000000       0.055556
siesta:    8   -0.039762    0.037189    0.000000       0.055556
siesta:    9   -0.002251    0.034950    0.000000       0.055556
siesta:   10    0.035261    0.032710    0.000000       0.055556
siesta:   11    0.072773    0.030470    0.000000       0.055556
siesta:   12    0.110284    0.028230    0.000000       0.055556
siesta:   13   -0.079524    0.074379    0.000000       0.055556
siesta:   14   -0.042013    0.072139    0.000000       0.055556
siesta:   15   -0.004501    0.069899    0.000000       0.055556
siesta:   16    0.033011    0.067660    0.000000       0.055556
siesta:   17    0.070522    0.065420    0.000000       0.055556
siesta:   18    0.108034    0.063180    0.000000       0.055556
siesta:   19   -0.081775    0.109328    0.000000       0.027778
siesta:   20   -0.044263    0.107089    0.000000       0.027778
siesta:   21   -0.006752    0.104849    0.000000       0.027778
siesta:   22    0.030760    0.102609    0.000000       0.027778
siesta:   23    0.068272    0.100369    0.000000       0.027778
siesta:   24    0.105783    0.098130    0.000000       0.027778

siesta: k-grid: Number of k-points =    24
siesta: k-grid: Cutoff             =    20.000 Ang
siesta: k-grid: Supercell and displacements
siesta: k-grid:    6   0   0      0.000
siesta: k-grid:    0   6   0      0.000
siesta: k-grid:    0   0   1      0.000

* Maximum dynamic memory allocated =     1 MB

siesta:                 ==============================
                            Begin MD step =      1
                        ==============================

outcoor: Atomic coordinates (Ang):                          
    8.51547752   10.04810042   20.89592098   2  C          1
    9.92677945   10.06218112   20.98326953   2  C          2
   10.62490985    8.84974270   21.03874846   2  C          3
    9.92198129    7.63485580   20.99441576   2  C          4
    8.52471794    7.62501609   20.89477777   2  C          5
    7.81570689    8.83894883   20.84822297   2  C          6
   10.59411318   11.25191732   21.00892142   3  O          7
    7.95229759   11.30439961   20.86725629   3  O          8
    9.91843532   11.95725558   20.99030845   1  H          9
   11.71863395    8.88133930   21.11917604   1  H         10
   10.47806118    6.69005059   21.03551021   1  H         11
    7.97825063    6.67385036   20.85595273   1  H         12
    6.71907836    8.84670824   20.76993951   1  H         13
    6.98867372   11.25612657   20.78809981   1  H         14

outcell: Unit cell vectors (Ang):
       14.829829    0.954961    0.000000
        0.950355   15.916955    0.000000
        0.000000    0.000000   40.000000

outcell: Cell vector modules (Ang)   :   14.860544   15.945301   40.000000
outcell: Cell angles (23,13,12) (deg):     90.0000     90.0000     82.8986
outcell: Cell volume (Ang**3)        :   9405.5268

InitMesh: MESH =   180 x   192 x   486 =    16796160
InitMesh: Mesh cutoff (required, used) =   400.000   406.937 Ry

* Maximum dynamic memory allocated =   148 MB

stepf: Fermi-Dirac step function

siesta: Program's energy decomposition (eV):
siesta: Eions   =      2959.063714
siesta: Ena     =       522.530234
siesta: Ekin    =      1254.474104
siesta: Enl     =      -171.524552
siesta: DEna    =        -0.000007
siesta: DUscf   =         0.000000
siesta: DUext   =         0.000000
siesta: Exc     =      -525.214982
siesta: eta*DQ  =         0.000000
siesta: Emadel  =         0.000000
siesta: Ekinion =         0.000000
siesta: Eharris =     -1896.943433
siesta: Etot    =     -1878.798916
siesta: FreeEng =     -1878.798916

siesta: iscf   Eharris(eV)      E_KS(eV)   FreeEng(eV)   dDmax  Ef(eV)
siesta:    1    -1896.9434    -1878.7989    -1878.7989  1.9302 -4.6587
timer: Routine,Calls,Time,% = IterSCF        1    6152.385  99.93
elaps: Routine,Calls,Wall,% = IterSCF        1    2292.805  99.78
siesta:    2    -1898.1730    -1893.2780    -1893.2780  0.2942 -0.0044
siesta:    3    -1896.7736    -1892.6935    -1892.6935  0.1874 -2.1227
siesta:    4    -1895.1766    -1893.9038    -1893.9038  0.0945 -1.3890
siesta:    5    -1895.1292    -1893.9882    -1893.9882  0.0612 -1.3109
siesta:    6    -1895.0510    -1894.5355    -1894.5355  0.0158 -1.7109
siesta:    7    -1895.0527    -1894.5922    -1894.5922  0.0124 -1.7334
siesta:    8    -1895.0456    -1894.8953    -1894.8953  0.0039 -1.6591
siesta:    9    -1895.0455    -1894.9226    -1894.9226  0.0032 -1.6499
siesta:   10    -1895.0452    -1894.9918    -1894.9918  0.0012 -1.6455
siesta:   11    -1895.0452    -1895.0317    -1895.0317  0.0003 -1.6498
siesta:   12    -1895.0452    -1895.0329    -1895.0329  0.0003 -1.6495
siesta:   13    -1895.0452    -1895.0411    -1895.0411  0.0001 -1.6501

siesta: E_KS(eV) =            -1895.0438

siesta: E_KS - E_eggbox =     -1895.0438

siesta: Atomic forces (eV/Ang):
     1   -0.030266   -0.013316    0.000204
     2    0.023095    0.006443   -0.007672
     3    0.010728    0.017056    0.002635
     4    0.039286    0.007309   -0.006880
     5   -0.024042    0.003284    0.008164
     6   -0.006707   -0.024777   -0.010375
     7   -0.015401   -0.022158    0.061434
     8    0.007681    0.035520   -0.021006
     9   -0.006627    0.007249   -0.024844
    10    0.013785   -0.008345   -0.015274
    11    0.001031   -0.021308    0.003536
    12   -0.000078    0.016899    0.000333
    13   -0.008510   -0.006128    0.011405
    14   -0.003004   -0.000702    0.004992
----------------------------------------
   Tot    0.000970   -0.002974    0.006653
----------------------------------------
   Max    0.061434
   Res    0.018064    sqrt( Sum f_i^2 / 3N )
----------------------------------------
   Max    0.061434    constrained

Stress-tensor-Voigt (kbar):       -0.02       -0.01        0.00        0.01        0.00        0.00
Target enthalpy (eV/cell)    -1895.0438

siesta: Stress tensor (static) (eV/Ang**3):
        -0.000013    0.000008   -0.000001
         0.000008   -0.000005    0.000000
        -0.000001    0.000000    0.000001

siesta: Pressure (static):          0.00882576  kBar

siesta: Stress tensor (total) (eV/Ang**3):
        -0.000013    0.000008   -0.000001
         0.000008   -0.000005    0.000000
        -0.000001    0.000000    0.000001

siesta: Pressure (total):          0.00882576  kBar
 
mulliken: Atomic and Orbital Populations:

Species: H                   
Atom  Qatom  Qorb
               1s      1s      1Ppy    1Ppz    1Ppx    
   9  1.186   0.483   0.440   0.056   0.088   0.118
  10  1.264   0.905   0.252   0.024   0.036   0.047
  11  1.264   0.903   0.253   0.040   0.037   0.030
  12  1.265   0.904   0.252   0.041   0.038   0.030
  13  1.267   0.902   0.256   0.023   0.038   0.047
  14  1.144   0.450   0.464   0.057   0.086   0.088

Species: C                   
Atom  Qatom  Qorb
               2s      2s      2py     2pz     2px     2py     2pz     2px     
               2Pdxy   2Pdyz   2Pdz2   2Pdxz   2Pdx2-y2
   1  4.050   0.559   0.438   0.514   0.840   0.468   0.363   0.168   0.458
              0.065   0.059   0.008   0.034   0.077
   2  4.034   0.541   0.449   0.435   0.812   0.520   0.416   0.170   0.444
              0.071   0.060   0.008   0.037   0.071
   3  3.768   0.366   0.534   0.512   0.827   0.140   0.440   0.146   0.693
              0.028   0.032   0.002   0.008   0.041
   4  3.755   0.361   0.538   0.242   0.811   0.409   0.622   0.142   0.511
              0.044   0.015   0.003   0.026   0.032
   5  3.757   0.360   0.538   0.235   0.820   0.414   0.623   0.141   0.508
              0.044   0.015   0.003   0.026   0.032
   6  3.788   0.370   0.531   0.524   0.842   0.145   0.432   0.146   0.683
              0.027   0.034   0.002   0.007   0.044

Species: O                   
Atom  Qatom  Qorb
               2s      2s      2py     2pz     2px     2py     2pz     2px     
               2Pdxy   2Pdyz   2Pdz2   2Pdxz   2Pdx2-y2
   7  5.742   0.850   0.561   0.588   1.637   1.382   0.495   0.068   0.124
              0.016   0.006   0.005   0.004   0.006
   8  5.716   0.860   0.546   1.173   1.656   0.654   0.217   0.070   0.502
              0.007   0.008   0.004   0.002   0.015

mulliken: Qtot =       42.000

siesta: Temp_ion =       0.000 K

* Maximum dynamic memory allocated =   148 MB

coxmol: Writing XMOL coordinates into file cat.xyz                                                         

coceri: Writing CERIUS coordinates into file cat.xtl                                                         

siesta: Eigenvalues (eV):
  ik is    eps
   1  1 -26.40 -25.58 -20.23 -17.70 -17.48 -15.23 -14.30 -13.09 -12.56 -11.08
        -10.64  -9.95  -9.72  -9.17  -8.70  -8.09  -7.99  -7.56  -7.20  -5.19
         -4.39  -0.22   0.14   1.38   2.47   3.33   3.86   4.08   4.69   5.33
          5.55   6.35   8.03   8.22   8.26   9.16  10.08  10.50  10.83  11.52
         11.72  12.09  12.16  12.37  12.90  13.06  13.66  13.83  13.93  14.44
         14.79  15.27  15.72  16.01  17.09  18.05  18.72  18.82  19.10  20.07
         20.13  20.83  21.09  21.31  21.97  22.26  22.38  23.00  23.31  24.54
         24.84  25.31  25.49  25.66  26.80  28.49  29.08  29.69  29.76  30.86
         31.23  31.45  32.95  35.26  35.74  36.33  37.95  38.19  39.53  39.77
         41.04  41.77  43.24  44.42  45.01  45.68  46.68  46.81  47.29  48.30
         49.55  51.12  52.75  53.18  53.70  53.78  54.82  55.80  56.92  57.40
         58.28  59.43  59.87  62.88  64.83  67.89  68.61  70.64  72.01  73.64
         74.41  78.50  78.75  80.42  84.34  86.18  88.71  90.73  92.36  97.43
         99.39 106.73 109.82 118.12
   2  1 -26.40 -25.58 -20.23 -17.70 -17.48 -15.23 -14.30 -13.09 -12.56 -11.08
        -10.64  -9.95  -9.72  -9.17  -8.70  -8.09  -7.99  -7.56  -7.20  -5.19
         -4.39  -0.22   0.14   1.38   2.47   3.33   3.86   4.08   4.69   5.33
          5.55   6.35   8.03   8.22   8.26   9.16  10.08  10.50  10.83  11.52
         11.72  12.09  12.16  12.37  12.90  13.06  13.66  13.83  13.93  14.44
         14.79  15.27  15.72  16.01  17.09  18.05  18.72  18.82  19.10  20.07
         20.13  20.83  21.09  21.31  21.97  22.26  22.38  23.00  23.31  24.54
         24.84  25.31  25.49  25.66  26.80  28.49  29.08  29.69  29.76  30.86
         31.23  31.45  32.95  35.26  35.74  36.33  37.95  38.19  39.53  39.77
         41.04  41.77  43.24  44.42  45.01  45.68  46.68  46.81  47.29  48.30
         49.55  51.12  52.75  53.18  53.70  53.78  54.82  55.80  56.92  57.40
         58.28  59.43  59.87  62.88  64.83  67.89  68.61  70.64  72.01  73.64
         74.41  78.50  78.75  80.42  84.34  86.18  88.71  90.73  92.36  97.43
         99.39 106.73 109.82 118.12
   3  1 -26.40 -25.58 -20.23 -17.70 -17.48 -15.23 -14.30 -13.09 -12.56 -11.08
        -10.64  -9.95  -9.72  -9.17  -8.70  -8.09  -7.99  -7.56  -7.20  -5.19
         -4.39  -0.22   0.14   1.38   2.47   3.33   3.86   4.08   4.69   5.33
          5.55   6.35   8.03   8.22   8.26   9.16  10.08  10.50  10.83  11.52
         11.72  12.09  12.16  12.37  12.90  13.06  13.66  13.83  13.93  14.44
         14.79  15.27  15.72  16.01  17.09  18.05  18.72  18.82  19.10  20.07
         20.13  20.83  21.09  21.31  21.97  22.26  22.38  23.00  23.31  24.54
         24.84  25.31  25.49  25.66  26.80  28.49  29.08  29.69  29.76  30.86
         31.23  31.45  32.95  35.26  35.74  36.33  37.95  38.19  39.53  39.77
         41.04  41.77  43.24  44.42  45.01  45.68  46.68  46.81  47.29  48.30
         49.55  51.12  52.75  53.18  53.70  53.78  54.82  55.80  56.92  57.40
         58.28  59.43  59.87  62.88  64.83  67.89  68.61  70.64  72.01  73.64
         74.41  78.50  78.75  80.42  84.34  86.18  88.71  90.73  92.36  97.43
         99.39 106.73 109.82 118.12
   4  1 -26.40 -25.58 -20.23 -17.70 -17.48 -15.23 -14.30 -13.09 -12.56 -11.08
        -10.64  -9.95  -9.72  -9.17  -8.70  -8.09  -7.99  -7.56  -7.20  -5.19
         -4.39  -0.22   0.14   1.38   2.47   3.33   3.86   4.08   4.69   5.33
          5.55   6.35   8.03   8.22   8.26   9.16  10.08  10.50  10.83  11.52
         11.72  12.09  12.16  12.37  12.90  13.06  13.66  13.83  13.93  14.44
         14.79  15.27  15.72  16.01  17.09  18.05  18.72  18.82  19.10  20.07
         20.13  20.83  21.09  21.31  21.97  22.26  22.38  23.00  23.31  24.54
         24.84  25.31  25.49  25.66  26.80  28.49  29.08  29.69  29.76  30.86
         31.23  31.45  32.95  35.26  35.74  36.33  37.95  38.19  39.53  39.77
         41.04  41.77  43.24  44.42  45.01  45.68  46.68  46.81  47.29  48.30
         49.55  51.12  52.75  53.18  53.70  53.78  54.82  55.80  56.92  57.40
         58.28  59.43  59.87  62.88  64.83  67.89  68.61  70.64  72.01  73.64
         74.41  78.50  78.75  80.42  84.34  86.18  88.71  90.73  92.36  97.43
         99.39 106.73 109.82 118.12
   5  1 -26.40 -25.58 -20.23 -17.70 -17.48 -15.23 -14.30 -13.09 -12.56 -11.08
        -10.64  -9.95  -9.72  -9.17  -8.70  -8.09  -7.99  -7.56  -7.20  -5.19
         -4.39  -0.22   0.14   1.38   2.47   3.33   3.86   4.08   4.69   5.33
          5.55   6.35   8.03   8.22   8.26   9.16  10.08  10.50  10.83  11.52
         11.72  12.09  12.16  12.37  12.90  13.06  13.66  13.83  13.93  14.44
         14.79  15.27  15.72  16.01  17.09  18.05  18.72  18.82  19.10  20.07
         20.13  20.83  21.09  21.31  21.97  22.26  22.38  23.00  23.31  24.54
         24.84  25.31  25.49  25.66  26.80  28.49  29.08  29.69  29.76  30.86
         31.23  31.45  32.95  35.26  35.74  36.33  37.95  38.19  39.53  39.77
         41.04  41.77  43.24  44.42  45.01  45.68  46.68  46.81  47.29  48.30
         49.55  51.12  52.75  53.18  53.70  53.78  54.82  55.80  56.92  57.40
         58.28  59.43  59.87  62.88  64.83  67.89  68.61  70.64  72.01  73.64
         74.41  78.50  78.75  80.42  84.34  86.18  88.71  90.73  92.36  97.43
         99.39 106.73 109.82 118.12
   6  1 -26.40 -25.58 -20.23 -17.70 -17.48 -15.23 -14.30 -13.09 -12.56 -11.08
        -10.64  -9.95  -9.72  -9.17  -8.70  -8.09  -7.99  -7.56  -7.20  -5.19
         -4.39  -0.22   0.14   1.38   2.47   3.33   3.86   4.08   4.69   5.33
          5.55   6.35   8.03   8.22   8.26   9.16  10.08  10.50  10.83  11.52
         11.72  12.09  12.16  12.37  12.90  13.06  13.66  13.83  13.93  14.44
         14.79  15.27  15.72  16.01  17.09  18.05  18.72  18.82  19.10  20.07
         20.13  20.83  21.09  21.31  21.97  22.26  22.38  23.00  23.31  24.54
         24.84  25.31  25.49  25.66  26.80  28.49  29.08  29.69  29.76  30.86
         31.23  31.45  32.95  35.26  35.74  36.33  37.95  38.19  39.53  39.77
         41.04  41.77  43.24  44.42  45.01  45.68  46.68  46.81  47.29  48.30
         49.55  51.12  52.75  53.18  53.70  53.78  54.82  55.80  56.92  57.40
         58.28  59.43  59.87  62.88  64.83  67.89  68.61  70.64  72.01  73.64
         74.41  78.50  78.75  80.42  84.34  86.18  88.71  90.73  92.36  97.43
         99.39 106.73 109.82 118.12
   7  1 -26.40 -25.58 -20.23 -17.70 -17.48 -15.23 -14.30 -13.09 -12.56 -11.08
        -10.64  -9.95  -9.72  -9.17  -8.70  -8.09  -7.99  -7.56  -7.20  -5.19
         -4.39  -0.22   0.14   1.38   2.47   3.33   3.86   4.08   4.69   5.33
          5.55   6.35   8.03   8.22   8.26   9.16  10.08  10.50  10.83  11.52
         11.72  12.09  12.16  12.37  12.90  13.06  13.66  13.83  13.93  14.44
         14.79  15.27  15.72  16.01  17.09  18.05  18.72  18.82  19.10  20.07
         20.13  20.83  21.09  21.31  21.97  22.26  22.38  23.00  23.31  24.54
         24.84  25.31  25.49  25.66  26.80  28.49  29.08  29.69  29.76  30.86
         31.23  31.45  32.95  35.26  35.74  36.33  37.95  38.19  39.53  39.77
         41.04  41.77  43.24  44.42  45.01  45.68  46.68  46.81  47.29  48.30
         49.55  51.12  52.75  53.18  53.70  53.78  54.82  55.80  56.92  57.40
         58.28  59.43  59.87  62.88  64.83  67.89  68.61  70.64  72.01  73.64
         74.41  78.50  78.75  80.42  84.34  86.18  88.71  90.73  92.36  97.43
         99.39 106.73 109.82 118.12
   8  1 -26.40 -25.58 -20.23 -17.70 -17.48 -15.23 -14.30 -13.09 -12.56 -11.08
        -10.64  -9.95  -9.72  -9.17  -8.70  -8.09  -7.99  -7.56  -7.20  -5.19
         -4.39  -0.22   0.14   1.38   2.47   3.33   3.86   4.08   4.69   5.33
          5.55   6.35   8.03   8.22   8.26   9.16  10.08  10.50  10.83  11.52
         11.72  12.09  12.16  12.37  12.90  13.06  13.66  13.83  13.93  14.44
         14.79  15.27  15.72  16.01  17.09  18.05  18.72  18.82  19.10  20.07
         20.13  20.83  21.09  21.31  21.97  22.26  22.38  23.00  23.31  24.54
         24.84  25.31  25.49  25.66  26.80  28.49  29.08  29.69  29.76  30.86
         31.23  31.45  32.95  35.26  35.74  36.33  37.95  38.19  39.53  39.77
         41.04  41.77  43.24  44.42  45.01  45.68  46.68  46.81  47.29  48.30
         49.55  51.12  52.75  53.18  53.70  53.78  54.82  55.80  56.92  57.40
         58.28  59.43  59.87  62.88  64.83  67.89  68.61  70.64  72.01  73.64
         74.41  78.50  78.75  80.42  84.34  86.18  88.71  90.73  92.36  97.43
         99.39 106.73 109.82 118.12
   9  1 -26.40 -25.58 -20.23 -17.70 -17.48 -15.23 -14.30 -13.09 -12.56 -11.08
        -10.64  -9.95  -9.72  -9.17  -8.70  -8.09  -7.99  -7.56  -7.20  -5.19
         -4.39  -0.22   0.14   1.38   2.47   3.33   3.86   4.08   4.69   5.33
          5.55   6.35   8.03   8.22   8.26   9.16  10.08  10.50  10.83  11.52
         11.72  12.09  12.16  12.37  12.90  13.06  13.66  13.83  13.93  14.44
         14.79  15.27  15.72  16.01  17.09  18.05  18.72  18.82  19.10  20.07
         20.13  20.83  21.09  21.31  21.97  22.26  22.38  23.00  23.31  24.54
         24.84  25.31  25.49  25.66  26.80  28.49  29.08  29.69  29.76  30.86
         31.23  31.45  32.95  35.26  35.74  36.33  37.95  38.19  39.53  39.77
         41.04  41.77  43.24  44.42  45.01  45.68  46.68  46.81  47.29  48.30
         49.55  51.12  52.75  53.18  53.70  53.78  54.82  55.80  56.92  57.40
         58.28  59.43  59.87  62.88  64.83  67.89  68.61  70.64  72.01  73.64
         74.41  78.50  78.75  80.42  84.34  86.18  88.71  90.73  92.36  97.43
         99.39 106.73 109.82 118.12
  10  1 -26.40 -25.58 -20.23 -17.70 -17.48 -15.23 -14.30 -13.09 -12.56 -11.08
        -10.64  -9.95  -9.72  -9.17  -8.70  -8.09  -7.99  -7.56  -7.20  -5.19
         -4.39  -0.22   0.14   1.38   2.47   3.33   3.86   4.08   4.69   5.33
          5.55   6.35   8.03   8.22   8.26   9.16  10.08  10.50  10.83  11.52
         11.72  12.09  12.16  12.37  12.90  13.06  13.66  13.83  13.93  14.44
         14.79  15.27  15.72  16.01  17.09  18.05  18.72  18.82  19.10  20.07
         20.13  20.83  21.09  21.31  21.97  22.26  22.38  23.00  23.31  24.54
         24.84  25.31  25.49  25.66  26.80  28.49  29.08  29.69  29.76  30.86
         31.23  31.45  32.95  35.26  35.74  36.33  37.95  38.19  39.53  39.77
         41.04  41.77  43.24  44.42  45.01  45.68  46.68  46.81  47.29  48.30
         49.55  51.12  52.75  53.18  53.70  53.78  54.82  55.80  56.92  57.40
         58.28  59.43  59.87  62.88  64.83  67.89  68.61  70.64  72.01  73.64
         74.41  78.50  78.75  80.42  84.34  86.18  88.71  90.73  92.36  97.43
         99.39 106.73 109.82 118.12
  11  1 -26.40 -25.58 -20.23 -17.70 -17.48 -15.23 -14.30 -13.09 -12.56 -11.08
        -10.64  -9.95  -9.72  -9.17  -8.70  -8.09  -7.99  -7.56  -7.20  -5.19
         -4.39  -0.22   0.14   1.38   2.47   3.33   3.86   4.08   4.69   5.33
          5.55   6.35   8.03   8.22   8.26   9.16  10.08  10.50  10.83  11.52
         11.72  12.09  12.16  12.37  12.90  13.06  13.66  13.83  13.93  14.44
         14.79  15.27  15.72  16.01  17.09  18.05  18.72  18.82  19.10  20.07
         20.13  20.83  21.09  21.31  21.97  22.26  22.38  23.00  23.31  24.54
         24.84  25.31  25.49  25.66  26.80  28.49  29.08  29.69  29.76  30.86
         31.23  31.45  32.95  35.26  35.74  36.33  37.95  38.19  39.53  39.77
         41.04  41.77  43.24  44.42  45.01  45.68  46.68  46.81  47.29  48.30
         49.55  51.12  52.75  53.18  53.70  53.78  54.82  55.80  56.92  57.40
         58.28  59.43  59.87  62.88  64.83  67.89  68.61  70.64  72.01  73.64
         74.41  78.50  78.75  80.42  84.34  86.18  88.71  90.73  92.36  97.43
         99.39 106.73 109.82 118.12
  12  1 -26.40 -25.58 -20.23 -17.70 -17.48 -15.23 -14.30 -13.09 -12.56 -11.08
        -10.64  -9.95  -9.72  -9.17  -8.70  -8.09  -7.99  -7.56  -7.20  -5.19
         -4.39  -0.22   0.14   1.38   2.47   3.33   3.86   4.08   4.69   5.33
          5.55   6.35   8.03   8.22   8.26   9.16  10.08  10.50  10.83  11.52
         11.72  12.09  12.16  12.37  12.90  13.06  13.66  13.83  13.93  14.44
         14.79  15.27  15.72  16.01  17.09  18.05  18.72  18.82  19.10  20.07
         20.13  20.83  21.09  21.31  21.97  22.26  22.38  23.00  23.31  24.54
         24.84  25.31  25.49  25.66  26.80  28.49  29.08  29.69  29.76  30.86
         31.23  31.45  32.95  35.26  35.74  36.33  37.95  38.19  39.53  39.77
         41.04  41.77  43.24  44.42  45.01  45.68  46.68  46.81  47.29  48.30
         49.55  51.12  52.75  53.18  53.70  53.78  54.82  55.80  56.92  57.40
         58.28  59.43  59.87  62.88  64.83  67.89  68.61  70.64  72.01  73.64
         74.41  78.50  78.75  80.42  84.34  86.18  88.71  90.73  92.36  97.43
         99.39 106.73 109.82 118.12
  13  1 -26.40 -25.58 -20.23 -17.70 -17.48 -15.23 -14.30 -13.09 -12.56 -11.08
        -10.64  -9.95  -9.72  -9.17  -8.70  -8.09  -7.99  -7.56  -7.20  -5.19
         -4.39  -0.22   0.14   1.38   2.47   3.33   3.86   4.08   4.69   5.33
          5.55   6.35   8.03   8.22   8.26   9.16  10.08  10.50  10.83  11.52
         11.72  12.09  12.16  12.37  12.90  13.06  13.66  13.83  13.93  14.44
         14.79  15.27  15.72  16.01  17.09  18.05  18.72  18.82  19.10  20.07
         20.13  20.83  21.09  21.31  21.97  22.26  22.38  23.00  23.31  24.54
         24.84  25.31  25.49  25.66  26.80  28.49  29.08  29.69  29.76  30.86
         31.23  31.45  32.95  35.26  35.74  36.33  37.95  38.19  39.53  39.77
         41.04  41.77  43.24  44.42  45.01  45.68  46.68  46.81  47.29  48.30
         49.55  51.12  52.75  53.18  53.70  53.78  54.82  55.80  56.92  57.40
         58.28  59.43  59.87  62.88  64.83  67.89  68.61  70.64  72.01  73.64
         74.41  78.50  78.75  80.42  84.34  86.18  88.71  90.73  92.36  97.43
         99.39 106.73 109.82 118.12
  14  1 -26.40 -25.58 -20.23 -17.70 -17.48 -15.23 -14.30 -13.09 -12.56 -11.08
        -10.64  -9.95  -9.72  -9.17  -8.70  -8.09  -7.99  -7.56  -7.20  -5.19
         -4.39  -0.22   0.14   1.38   2.47   3.33   3.86   4.08   4.69   5.33
          5.55   6.35   8.03   8.22   8.26   9.16  10.08  10.50  10.83  11.52
         11.72  12.09  12.16  12.37  12.90  13.06  13.66  13.83  13.93  14.44
         14.79  15.27  15.72  16.01  17.09  18.05  18.72  18.82  19.10  20.07
         20.13  20.83  21.09  21.31  21.97  22.26  22.38  23.00  23.31  24.54
         24.84  25.31  25.49  25.66  26.80  28.49  29.08  29.69  29.76  30.86
         31.23  31.45  32.95  35.26  35.74  36.33  37.95  38.19  39.53  39.77
         41.04  41.77  43.24  44.42  45.01  45.68  46.68  46.81  47.29  48.30
         49.55  51.12  52.75  53.18  53.70  53.78  54.82  55.80  56.92  57.40
         58.28  59.43  59.87  62.88  64.83  67.89  68.61  70.64  72.01  73.64
         74.41  78.50  78.75  80.42  84.34  86.18  88.71  90.73  92.36  97.43
         99.39 106.73 109.82 118.12
  15  1 -26.40 -25.58 -20.23 -17.70 -17.48 -15.23 -14.30 -13.09 -12.56 -11.08
        -10.64  -9.95  -9.72  -9.17  -8.70  -8.09  -7.99  -7.56  -7.20  -5.19
         -4.39  -0.22   0.14   1.38   2.47   3.33   3.86   4.08   4.69   5.33
          5.55   6.35   8.03   8.22   8.26   9.16  10.08  10.50  10.83  11.52
         11.72  12.09  12.16  12.37  12.90  13.06  13.66  13.83  13.93  14.44
         14.79  15.27  15.72  16.01  17.09  18.05  18.72  18.82  19.10  20.07
         20.13  20.83  21.09  21.31  21.97  22.26  22.38  23.00  23.31  24.54
         24.84  25.31  25.49  25.66  26.80  28.49  29.08  29.69  29.76  30.86
         31.23  31.45  32.95  35.26  35.74  36.33  37.95  38.19  39.53  39.77
         41.04  41.77  43.24  44.42  45.01  45.68  46.68  46.81  47.29  48.30
         49.55  51.12  52.75  53.18  53.70  53.78  54.82  55.80  56.92  57.40
         58.28  59.43  59.87  62.88  64.83  67.89  68.61  70.64  72.01  73.64
         74.41  78.50  78.75  80.42  84.34  86.18  88.71  90.73  92.36  97.43
         99.39 106.73 109.82 118.12
  16  1 -26.40 -25.58 -20.23 -17.70 -17.48 -15.23 -14.30 -13.09 -12.56 -11.08
        -10.64  -9.95  -9.72  -9.17  -8.70  -8.09  -7.99  -7.56  -7.20  -5.19
         -4.39  -0.22   0.14   1.38   2.47   3.33   3.86   4.08   4.69   5.33
          5.55   6.35   8.03   8.22   8.26   9.16  10.08  10.50  10.83  11.52
         11.72  12.09  12.16  12.37  12.90  13.06  13.66  13.83  13.93  14.44
         14.79  15.27  15.72  16.01  17.09  18.05  18.72  18.82  19.10  20.07
         20.13  20.83  21.09  21.31  21.97  22.26  22.38  23.00  23.31  24.54
         24.84  25.31  25.49  25.66  26.80  28.49  29.08  29.69  29.76  30.86
         31.23  31.45  32.95  35.26  35.74  36.33  37.95  38.19  39.53  39.77
         41.04  41.77  43.24  44.42  45.01  45.68  46.68  46.81  47.29  48.30
         49.55  51.12  52.75  53.18  53.70  53.78  54.82  55.80  56.92  57.40
         58.28  59.43  59.87  62.88  64.83  67.89  68.61  70.64  72.01  73.64
         74.41  78.50  78.75  80.42  84.34  86.18  88.71  90.73  92.36  97.43
         99.39 106.73 109.82 118.12
  17  1 -26.40 -25.58 -20.23 -17.70 -17.48 -15.23 -14.30 -13.09 -12.56 -11.08
        -10.64  -9.95  -9.72  -9.17  -8.70  -8.09  -7.99  -7.56  -7.20  -5.19
         -4.39  -0.22   0.14   1.38   2.47   3.33   3.86   4.08   4.69   5.33
          5.55   6.35   8.03   8.22   8.26   9.16  10.08  10.50  10.83  11.52
         11.72  12.09  12.16  12.37  12.90  13.06  13.66  13.83  13.93  14.44
         14.79  15.27  15.72  16.01  17.09  18.05  18.72  18.82  19.10  20.07
         20.13  20.83  21.09  21.31  21.97  22.26  22.38  23.00  23.31  24.54
         24.84  25.31  25.49  25.66  26.80  28.49  29.08  29.69  29.76  30.86
         31.23  31.45  32.95  35.26  35.74  36.33  37.95  38.19  39.53  39.77
         41.04  41.77  43.24  44.42  45.01  45.68  46.68  46.81  47.29  48.30
         49.55  51.12  52.75  53.18  53.70  53.78  54.82  55.80  56.92  57.40
         58.28  59.43  59.87  62.88  64.83  67.89  68.61  70.64  72.01  73.64
         74.41  78.50  78.75  80.42  84.34  86.18  88.71  90.73  92.36  97.43
         99.39 106.73 109.82 118.12
  18  1 -26.40 -25.58 -20.23 -17.70 -17.48 -15.23 -14.30 -13.09 -12.56 -11.08
        -10.64  -9.95  -9.72  -9.17  -8.70  -8.09  -7.99  -7.56  -7.20  -5.19
         -4.39  -0.22   0.14   1.38   2.47   3.33   3.86   4.08   4.69   5.33
          5.55   6.35   8.03   8.22   8.26   9.16  10.08  10.50  10.83  11.52
         11.72  12.09  12.16  12.37  12.90  13.06  13.66  13.83  13.93  14.44
         14.79  15.27  15.72  16.01  17.09  18.05  18.72  18.82  19.10  20.07
         20.13  20.83  21.09  21.31  21.97  22.26  22.38  23.00  23.31  24.54
         24.84  25.31  25.49  25.66  26.80  28.49  29.08  29.69  29.76  30.86
         31.23  31.45  32.95  35.26  35.74  36.33  37.95  38.19  39.53  39.77
         41.04  41.77  43.24  44.42  45.01  45.68  46.68  46.81  47.29  48.30
         49.55  51.12  52.75  53.18  53.70  53.78  54.82  55.80  56.92  57.40
         58.28  59.43  59.87  62.88  64.83  67.89  68.61  70.64  72.01  73.64
         74.41  78.50  78.75  80.42  84.34  86.18  88.71  90.73  92.36  97.43
         99.39 106.73 109.82 118.12
  19  1 -26.40 -25.58 -20.23 -17.70 -17.48 -15.23 -14.30 -13.09 -12.56 -11.08
        -10.64  -9.95  -9.72  -9.17  -8.70  -8.09  -7.99  -7.56  -7.20  -5.19
         -4.39  -0.22   0.14   1.38   2.47   3.33   3.86   4.08   4.69   5.33
          5.55   6.35   8.03   8.22   8.26   9.16  10.08  10.50  10.83  11.52
         11.72  12.09  12.16  12.37  12.90  13.06  13.66  13.83  13.93  14.44
         14.79  15.27  15.72  16.01  17.09  18.05  18.72  18.82  19.10  20.07
         20.13  20.83  21.09  21.31  21.97  22.26  22.38  23.00  23.31  24.54
         24.84  25.31  25.49  25.66  26.80  28.49  29.08  29.69  29.76  30.86
         31.23  31.45  32.95  35.26  35.74  36.33  37.95  38.19  39.53  39.77
         41.04  41.77  43.24  44.42  45.01  45.68  46.68  46.81  47.29  48.30
         49.55  51.12  52.75  53.18  53.70  53.78  54.82  55.80  56.92  57.40
         58.28  59.43  59.87  62.88  64.83  67.89  68.61  70.64  72.01  73.64
         74.41  78.50  78.75  80.42  84.34  86.18  88.71  90.73  92.36  97.43
         99.39 106.73 109.82 118.12
  20  1 -26.40 -25.58 -20.23 -17.70 -17.48 -15.23 -14.30 -13.09 -12.56 -11.08
        -10.64  -9.95  -9.72  -9.17  -8.70  -8.09  -7.99  -7.56  -7.20  -5.19
         -4.39  -0.22   0.14   1.38   2.47   3.33   3.86   4.08   4.69   5.33
          5.55   6.35   8.03   8.22   8.26   9.16  10.08  10.50  10.83  11.52
         11.72  12.09  12.16  12.37  12.90  13.06  13.66  13.83  13.93  14.44
         14.79  15.27  15.72  16.01  17.09  18.05  18.72  18.82  19.10  20.07
         20.13  20.83  21.09  21.31  21.97  22.26  22.38  23.00  23.31  24.54
         24.84  25.31  25.49  25.66  26.80  28.49  29.08  29.69  29.76  30.86
         31.23  31.45  32.95  35.26  35.74  36.33  37.95  38.19  39.53  39.77
         41.04  41.77  43.24  44.42  45.01  45.68  46.68  46.81  47.29  48.30
         49.55  51.12  52.75  53.18  53.70  53.78  54.82  55.80  56.92  57.40
         58.28  59.43  59.87  62.88  64.83  67.89  68.61  70.64  72.01  73.64
         74.41  78.50  78.75  80.42  84.34  86.18  88.71  90.73  92.36  97.43
         99.39 106.73 109.82 118.12
  21  1 -26.40 -25.58 -20.23 -17.70 -17.48 -15.23 -14.30 -13.09 -12.56 -11.08
        -10.64  -9.95  -9.72  -9.17  -8.70  -8.09  -7.99  -7.56  -7.20  -5.19
         -4.39  -0.22   0.14   1.38   2.47   3.33   3.86   4.08   4.69   5.33
          5.55   6.35   8.03   8.22   8.26   9.16  10.08  10.50  10.83  11.52
         11.72  12.09  12.16  12.37  12.90  13.06  13.66  13.83  13.93  14.44
         14.79  15.27  15.72  16.01  17.09  18.05  18.72  18.82  19.10  20.07
         20.13  20.83  21.09  21.31  21.97  22.26  22.38  23.00  23.31  24.54
         24.84  25.31  25.49  25.66  26.80  28.49  29.08  29.69  29.76  30.86
         31.23  31.45  32.95  35.26  35.74  36.33  37.95  38.19  39.53  39.77
         41.04  41.77  43.24  44.42  45.01  45.68  46.68  46.81  47.29  48.30
         49.55  51.12  52.75  53.18  53.70  53.78  54.82  55.80  56.92  57.40
         58.28  59.43  59.87  62.88  64.83  67.89  68.61  70.64  72.01  73.64
         74.41  78.50  78.75  80.42  84.34  86.18  88.71  90.73  92.36  97.43
         99.39 106.73 109.82 118.12
  22  1 -26.40 -25.58 -20.23 -17.70 -17.48 -15.23 -14.30 -13.09 -12.56 -11.08
        -10.64  -9.95  -9.72  -9.17  -8.70  -8.09  -7.99  -7.56  -7.20  -5.19
         -4.39  -0.22   0.14   1.38   2.47   3.33   3.86   4.08   4.69   5.33
          5.55   6.35   8.03   8.22   8.26   9.16  10.08  10.50  10.83  11.52
         11.72  12.09  12.16  12.37  12.90  13.06  13.66  13.83  13.93  14.44
         14.79  15.27  15.72  16.01  17.09  18.05  18.72  18.82  19.10  20.07
         20.13  20.83  21.09  21.31  21.97  22.26  22.38  23.00  23.31  24.54
         24.84  25.31  25.49  25.66  26.80  28.49  29.08  29.69  29.76  30.86
         31.23  31.45  32.95  35.26  35.74  36.33  37.95  38.19  39.53  39.77
         41.04  41.77  43.24  44.42  45.01  45.68  46.68  46.81  47.29  48.30
         49.55  51.12  52.75  53.18  53.70  53.78  54.82  55.80  56.92  57.40
         58.28  59.43  59.87  62.88  64.83  67.89  68.61  70.64  72.01  73.64
         74.41  78.50  78.75  80.42  84.34  86.18  88.71  90.73  92.36  97.43
         99.39 106.73 109.82 118.12
  23  1 -26.40 -25.58 -20.23 -17.70 -17.48 -15.23 -14.30 -13.09 -12.56 -11.08
        -10.64  -9.95  -9.72  -9.17  -8.70  -8.09  -7.99  -7.56  -7.20  -5.19
         -4.39  -0.22   0.14   1.38   2.47   3.33   3.86   4.08   4.69   5.33
          5.55   6.35   8.03   8.22   8.26   9.16  10.08  10.50  10.83  11.52
         11.72  12.09  12.16  12.37  12.90  13.06  13.66  13.83  13.93  14.44
         14.79  15.27  15.72  16.01  17.09  18.05  18.72  18.82  19.10  20.07
         20.13  20.83  21.09  21.31  21.97  22.26  22.38  23.00  23.31  24.54
         24.84  25.31  25.49  25.66  26.80  28.49  29.08  29.69  29.76  30.86
         31.23  31.45  32.95  35.26  35.74  36.33  37.95  38.19  39.53  39.77
         41.04  41.77  43.24  44.42  45.01  45.68  46.68  46.81  47.29  48.30
         49.55  51.12  52.75  53.18  53.70  53.78  54.82  55.80  56.92  57.40
         58.28  59.43  59.87  62.88  64.83  67.89  68.61  70.64  72.01  73.64
         74.41  78.50  78.75  80.42  84.34  86.18  88.71  90.73  92.36  97.43
         99.39 106.73 109.82 118.12
  24  1 -26.40 -25.58 -20.23 -17.70 -17.48 -15.23 -14.30 -13.09 -12.56 -11.08
        -10.64  -9.95  -9.72  -9.17  -8.70  -8.09  -7.99  -7.56  -7.20  -5.19
         -4.39  -0.22   0.14   1.38   2.47   3.33   3.86   4.08   4.69   5.33
          5.55   6.35   8.03   8.22   8.26   9.16  10.08  10.50  10.83  11.52
         11.72  12.09  12.16  12.37  12.90  13.06  13.66  13.83  13.93  14.44
         14.79  15.27  15.72  16.01  17.09  18.05  18.72  18.82  19.10  20.07
         20.13  20.83  21.09  21.31  21.97  22.26  22.38  23.00  23.31  24.54
         24.84  25.31  25.49  25.66  26.80  28.49  29.08  29.69  29.76  30.86
         31.23  31.45  32.95  35.26  35.74  36.33  37.95  38.19  39.53  39.77
         41.04  41.77  43.24  44.42  45.01  45.68  46.68  46.81  47.29  48.30
         49.55  51.12  52.75  53.18  53.70  53.78  54.82  55.80  56.92  57.40
         58.28  59.43  59.87  62.88  64.83  67.89  68.61  70.64  72.01  73.64
         74.41  78.50  78.75  80.42  84.34  86.18  88.71  90.73  92.36  97.43
         99.39 106.73 109.82 118.12
siesta: Fermi energy =      -1.650066 eV

siesta: Program's energy decomposition (eV):
siesta: Eions   =      2959.063714
siesta: Ena     =       522.530234
siesta: Ekin    =      1366.647125
siesta: Enl     =      -272.368458
siesta: DEna    =       -17.596903
siesta: DUscf   =         3.220706
siesta: DUext   =         0.000000
siesta: Exc     =      -538.412828
siesta: eta*DQ  =         0.000000
siesta: Emadel  =         0.000000
siesta: Ekinion =         0.000000
siesta: Eharris =     -1895.045156
siesta: Etot    =     -1895.043837
siesta: FreeEng =     -1895.043837

siesta: Final energy (eV):
siesta:       Kinetic =    1366.647125
siesta:       Hartree =    5557.642764
siesta:    Ext. field =       0.000000
siesta:   Exch.-corr. =    -538.412828
siesta:  Ion-electron =  -12309.277556
siesta:       Ion-ion =    4028.356657
siesta:       Ekinion =       0.000000
siesta:         Total =   -1895.043837

siesta: Atomic forces (eV/Ang):
siesta:      1   -0.030266   -0.013316    0.000204
siesta:      2    0.023095    0.006443   -0.007672
siesta:      3    0.010728    0.017056    0.002635
siesta:      4    0.039286    0.007309   -0.006880
siesta:      5   -0.024042    0.003284    0.008164
siesta:      6   -0.006707   -0.024777   -0.010375
siesta:      7   -0.015401   -0.022158    0.061434
siesta:      8    0.007681    0.035520   -0.021006
siesta:      9   -0.006627    0.007249   -0.024844
siesta:     10    0.013785   -0.008345   -0.015274
siesta:     11    0.001031   -0.021308    0.003536
siesta:     12   -0.000078    0.016899    0.000333
siesta:     13   -0.008510   -0.006128    0.011405
siesta:     14   -0.003004   -0.000702    0.004992
siesta: ----------------------------------------
siesta:    Tot    0.000970   -0.002974    0.006653

siesta: Stress tensor (static) (eV/Ang**3):
siesta:    -0.000013    0.000008   -0.000001
siesta:     0.000008   -0.000005    0.000000
siesta:    -0.000001    0.000000    0.000001

siesta: Constrained stress tensor (static) (eV/Ang**3):
siesta:    -0.000013    0.000008    0.000000
siesta:     0.000008   -0.000005    0.000000
siesta:     0.000000    0.000000    0.000000

siesta: Cell volume =       9405.526756 Ang**3

siesta: Pressure (static):
siesta:                Solid            Molecule  Units
siesta:           0.00000006         -0.00000001  Ry/Bohr**3
siesta:           0.00000551         -0.00000082  eV/Ang**3
siesta:           0.00882576         -0.00131964  kBar

siesta: Electric dipole (a.u.)  =   -0.778185    0.293640   -0.046428
siesta: Electric dipole (Debye) =   -1.977950    0.746360   -0.118008

* Maximum dynamic memory allocated : Node    0 =   116 MB
* Maximum dynamic memory allocated : Node    1 =   122 MB
* Maximum dynamic memory allocated : Node    2 =   135 MB
* Maximum dynamic memory allocated : Node    3 =   114 MB
* Maximum dynamic memory allocated : Node    4 =   116 MB
* Maximum dynamic memory allocated : Node    5 =   126 MB
* Maximum dynamic memory allocated : Node    6 =   148 MB
* Maximum dynamic memory allocated : Node    7 =   114 MB

* Maximum memory occured during redistribXZ                   

timer: CPU execution times:
timer:  Routine       Calls   Time/call    Tot.time        %
timer:  siesta            1   80948.685   80948.685   100.00
timer:  Setup             1       0.392       0.392     0.00
timer:  bands             1       0.000       0.000     0.00
timer:  writewave         1       0.000       0.000     0.00
timer:  KSV_init          1       0.000       0.000     0.00
timer:  IterMD            1   80947.060   80947.060   100.00
timer:  hsparse           2       0.004       0.008     0.00
timer:  overfsm           2       2.067       4.134     0.01
timer:  IterSCF          14    5780.792   80931.087    99.98
timer:  kinefsm           2       2.086       4.173     0.01
timer:  nlefsm            2      13.780      27.560     0.03
timer:  DHSCF            14     303.839    4253.752     5.25
timer:  DHSCF1            1       3.940       3.940     0.00
timer:  DHSCF2            1     128.217     128.217     0.16
timer:  REORD           114       0.078       8.843     0.01
timer:  POISON           15     216.471    3247.066     4.01
timer:  DHSCF3           14     293.714    4111.996     5.08
timer:  rhoofd           14       3.027      42.373     0.05
timer:  cellXC           14      19.483     272.763     0.34
timer:  vmat             14      16.253     227.547     0.28
timer:  diagon           13    5861.809   76203.514    94.14
timer:  cdiag           624     121.851   76034.725    93.93
timer:  cdiag1          624       5.067    3161.904     3.91
timer:  cdiag2          624      19.582   12218.886    15.09
timer:  cdiag3          624      92.545   57748.364    71.34
timer:  cdiag4          624       3.031    1891.125     2.34
timer:  DHSCF4            1       8.279       8.279     0.01
timer:  dfscf             1       7.806       7.806     0.01
timer:  optical           1       0.009       0.009     0.00
  

elaps: ELAPSED times:
elaps:  Routine       Calls   Time/call    Tot.time        %
elaps:  siesta            1   31194.524   31194.524   100.00
elaps:  Setup             1       3.127       3.127     0.01
elaps:  bands             1       0.000       0.000     0.00
elaps:  writewave         1       0.000       0.000     0.00
elaps:  KSV_init          1       0.000       0.000     0.00
elaps:  IterMD            1   31190.720   31190.720    99.99
elaps:  hsparse           2       0.000       0.001     0.00
elaps:  overfsm           2       0.501       1.001     0.00
elaps:  IterSCF          14    2227.467   31184.531    99.97
elaps:  kinefsm           2       0.604       1.207     0.00
elaps:  nlefsm            2       3.413       6.826     0.02
elaps:  DHSCF            14     130.037    1820.515     5.84
elaps:  DHSCF1            1       1.048       1.048     0.00
elaps:  DHSCF2            1      70.141      70.141     0.22
elaps:  REORD           114       0.013       1.456     0.00
elaps:  POISON           15     100.959    1514.388     4.85
elaps:  DHSCF3           14     124.871    1748.189     5.60
elaps:  rhoofd           14       0.933      13.066     0.04
elaps:  cellXC           14       6.719      94.062     0.30
elaps:  vmat             14       5.671      79.390     0.25
elaps:  diagon           13    2244.514   29178.679    93.54
elaps:  cdiag           624      46.665   29118.862    93.35
elaps:  cdiag1          624       1.755    1095.293     3.51
elaps:  cdiag2          624       6.660    4155.528    13.32
elaps:  cdiag3          624      36.587   22830.461    73.19
elaps:  cdiag4          624       1.035     646.039     2.07
elaps:  DHSCF4            1       0.883       0.883     0.00
elaps:  dfscf             1       0.882       0.882     0.00
elaps:  optical           1       0.000       0.000     0.00
  
>> End of run:  26-JAN-2011  20:27:59
