Siesta Version: siesta-2.0.1
Architecture  : intel10-mkl10-mpich
Compiler flags: /opt/mpich/intel10/bin/mpif90 -O3 -xP -mp
PARALLEL version

* Running on    8 nodes in parallel
>> Start of run:  27-SEP-2010   9:17:34

                           ***********************       
                           *  WELCOME TO SIESTA  *       
                           ***********************       

reinit: Reading from standard input
************************** Dump of input data file ****************************
# Label
SystemLabel wat5sio2-a
# Optimisation
MD.TypeOfRun CG
MD.NumCGSteps 9000
MD.VariableCell .true.
MD.UseSaveXV .true.
MD.UseSaveCG .true.
MD.UseSaveDM .true.
# SCF
SolutionMethod diagon
MaxSCFIterations 500
DM.MixingWeight 0.05
DM.NumberPulay 30
SpinPolarized F
# Basis set
MeshCutoff 200 Ry
# Functional
XC.Functional GGA
XC.Authors RPBE
# I/O
LongOutput true
WriteMDhistory true
WriteMDXmol true
WriteCoorXmol true
WriteCoorCerius true
WriteDM true
############################################################################################
NumberOfSpecies    3
NumberOfAtoms      213
%block ChemicalSpeciesLabel
    1   1   H
    2   8   O
    3  14   Si
%endblock ChemicalSpeciesLabel
%block PAO.BasisSizes
 H  DZP
 O  DZP
 Si DZP
%endblock PAO.BasisSizes
LatticeConstant    1.00000 Ang
%block LatticeVectors
   14.676672   -0.035579    0.000000
   -0.046750   14.798342    0.000000
    0.000000    0.000000   40.000000
%endblock LatticeVectors
%block GeometryConstraints
  position from  1  to 1
  position from  21 to 7
  position from  27 to 13
  position from  33 to 19
  position from  39 to 25
  position from  45 to 31
  position from  51 to 37
  position from  57 to 43
  position from  63 to 49
  stress 3 4 5
%endblock GeometryConstraints
AtomicCoordinatesFormat Ang
%block AtomicCoordinatesAndAtomicSpecies
    2.97003781    3.37939138    2.43762000   3  Si         1
    3.25019165    0.97142009    4.29583805   3  Si         2
    0.82881234    0.88101269    6.16682632   3  Si         3
    0.82992151    3.28510033    8.04223961   3  Si         4
    3.23763359    3.27899297    9.94374657   3  Si         5
    2.78651946    0.87228475   11.82432401   3  Si         6
    2.96040139    8.27860300    2.43762000   3  Si         7
    3.31133415    5.86878952    4.28450800   3  Si         8
    0.89648741    5.77731209    6.15605600   3  Si         9
    0.82035735    8.16954963    7.99228500   3  Si        10
    3.22228921    8.17041787    9.84869400   3  Si        11
    2.79558047    5.81133779   11.79182200   3  Si        12
    2.95076596   13.17781362    2.43762000   3  Si        13
    3.29809724   10.77276061    4.28692500   3  Si        14
    0.88304426   10.68723764    6.16320700   3  Si        15
    0.84978668   13.09686199    8.01428700   3  Si        16
    3.23950378   13.07465635    9.94148700   3  Si        17
    2.77887969   10.64761507   11.76632500   3  Si        18
    7.84142509    3.37334709    2.43762000   3  Si        19
    8.08816546    0.94511151    4.31697200   3  Si        20
    5.67599263    0.87119505    6.18665000   3  Si        21
    5.66460663    3.27094382    8.03512300   3  Si        22
    8.12119282    3.32763586    9.86023600   3  Si        23
    7.69941409    0.92874069   11.71587700   3  Si        24
    7.83178867    8.27255870    2.43762000   3  Si        25
    8.21033658    5.86246773    4.29183700   3  Si        26
    5.75754860    5.75566741    6.13173300   3  Si        27
    5.70467130    8.17156702    7.96491400   3  Si        28
    8.15664223    8.32066091    9.76076200   3  Si        29
    7.68240443    5.99885193   11.50998800   3  Si        30
    7.82215224   13.17177032    2.43762000   3  Si        31
    8.17864335   10.76908982    4.28078100   3  Si        32
    5.74467599   10.69618950    6.13638000   3  Si        33
    5.69883580   13.06174802    8.02913700   3  Si        34
    8.15273635   13.12583923    9.83587100   3  Si        35
    7.71895771   10.79022077   11.69678500   3  Si        36
   12.71281137    3.36730379    2.43762000   3  Si        37
   12.99899953    0.96501948    4.28999500   3  Si        38
   10.58247633    0.89234214    6.13931700   3  Si        39
   10.59863302    3.29412375    8.00719800   3  Si        40
   12.99017619    3.33713513    9.91224400   3  Si        41
   12.54704232    0.91569439   11.73093300   3  Si        42
   12.70317595    8.26651441    2.43762000   3  Si        43
   13.09262719    5.87234446    4.27933100   3  Si        44
   10.66354145    5.79001935    6.13512600   3  Si        45
   10.60599998    8.23911275    7.91798600   3  Si        46
   12.95990169    8.26335751    9.86855800   3  Si        47
   12.51004264    5.87464378   11.75819500   3  Si        48
   12.69353952   13.16572602    2.43762000   3  Si        49
   13.07679238   10.79161785    4.26006200   3  Si        50
   10.65437134   10.70953823    6.08930600   3  Si        51
   10.60161695   13.09277206    7.95809700   3  Si        52
   12.98618541   13.14729972    9.84911900   3  Si        53
   12.56546171   10.77934245   11.72313600   3  Si        54
    2.56649768    4.68775877    3.39377800   2  O         55
    3.79518643    2.22050588    3.34238600   2  O         56
    4.51076684    0.31506993    5.14759300   2  O         57
    2.08806595    1.57317253    5.32487100   2  O         58
    0.16913324    2.05525943    7.14285800   2  O         59
    2.09132961    2.64690267    8.90825500   2  O         60
    2.53138452    4.53752950   10.74759800   2  O         61
    1.41332105    4.50779685    7.07874900   2  O         62
    4.52573283    3.87309094    9.07349900   2  O         63
    3.71556906    2.03466731   10.95245382   2  O         64
    3.49330579    0.52857118   13.22122843   2  O         65
    1.26727675    1.44402398   12.19664262   2  O         66
    2.55601715    9.58746214    3.40067314   2  O         67
    3.81688468    7.11178437    3.30465781   2  O         68
    4.63361227    5.21378238    5.04007470   2  O         69
    2.20933343    6.44865288    5.39025743   2  O         70
    0.16099358    6.96129745    7.06669818   2  O         71
    2.07825570    7.50684815    8.84533876   2  O         72
    2.50545829    9.40171874   10.69628524   2  O         73
    1.41726933    9.40116564    7.06016251   2  O         74
    4.51998168    8.73883028    8.99123031   2  O         75
    3.70882550    6.96322090   10.89865787   2  O         76
    3.67279686    5.36546150   13.08828228   2  O         77
    1.29552567    6.39660192   12.23447211   2  O         78
    2.54613090   14.49963229    3.38490583   2  O         79
    3.80829304   12.01992441    3.31476180   2  O         80
    4.61531935   10.13055597    5.06128092   2  O         81
    2.18545819   11.35373681    5.37942380   2  O         82
    0.19829486   11.86199213    7.11549746   2  O         83
    2.10818819   12.45592282    8.88681274   2  O         84
    2.56128577   14.32470271   10.75217614   2  O         85
    1.40305251   14.33015184    7.04615121   2  O         86
    4.57694430   13.60711738    9.12044658   2  O         87
    3.70097150   11.82283006   10.95658426   2  O         88
    3.70777058   10.16598172   13.06473724   2  O         89
    1.31305983   11.18659066   12.32300178   2  O         90
    7.46573814    4.67702533    3.40886528   2  O         91
    8.61832017    2.15986196    3.31570292   2  O         92
    9.38591220    0.31929136    5.14414464   2  O         93
    6.94576667    1.55375870    5.36335066   2  O         94
    4.98714927    2.03972211    7.14927207   2  O         95
    6.96003224    2.64056395    8.87524178   2  O         96
    7.41973697    4.65231344   10.56467811   2  O         97
    6.24270160    4.48301905    7.06578734   2  O         98
    9.42576587    3.89440318    9.00839859   2  O         99
    8.64336919    2.13166207   10.91509755   2  O        100
    8.51226883    0.51929303   13.10114186   2  O        101
    6.26310815    1.53503910   12.20557804   2  O        102
    7.43646889    9.58091685    3.40020512   2  O        103
    8.69351340    7.10870734    3.30631750   2  O        104
    9.53587730    5.22246432    5.05618647   2  O        105
    7.08696526    6.41656725    5.38916369   2  O        106
    5.05648459    6.95254363    7.05101197   2  O        107
    6.99164008    7.57304746    8.82898767   2  O        108
    7.46519338    9.58051000   10.56383800   2  O        109
    6.27659560    9.42228176    7.04778489   2  O        110
    9.40683549    8.91678696    8.84440555   2  O        111
    8.76070727    7.08231614   10.73185566   2  O        112
    8.42988327    5.54291917   12.93170812   2  O        113
    6.30487568    6.75781222   11.93460167   2  O        114
    7.37666337   14.44896985    3.43554180   2  O        115
    8.68905558   12.00546967    3.29390754   2  O        116
    9.49570820   10.12574464    5.05467991   2  O        117
    7.05341855   11.35944558    5.36050430   2  O        118
    5.04326489   11.86627410    7.08579463   2  O        119
    7.00229918   12.43344650    8.85026222   2  O        120
    7.47491785   14.40415576   10.63531575   2  O        121
    6.21825940   14.32829593    7.08997419   2  O        122
    9.42761691   13.70220195    8.95532279   2  O        123
    8.68244731   11.95337571   10.90373793   2  O        124
    8.38851054   10.31630483   13.08535398   2  O        125
    6.23763471   11.43685813   12.16214281   2  O        126
   12.34690695    4.67567065    3.41005181   2  O        127
   13.54843946    2.17497056    3.29259231   2  O        128
   14.27083263    0.33379580    5.15385109   2  O        129
   11.82808225    1.58902957    5.29174495   2  O        130
    9.93186162    2.06987735    7.11134318   2  O        131
   11.85185385    2.67105136    8.89823923   2  O        132
   12.28099714    4.60181355   10.71188905   2  O        133
   11.18846588    4.52479500    7.06549261   2  O        134
   14.30542420    3.88493444    9.06270714   2  O        135
   13.46200739    2.12790614   10.95611613   2  O        136
   13.36733247    0.41629784   13.05779592   2  O        137
   11.05177914    1.42657409   12.24127630   2  O        138
   12.34428849    9.58783696    3.39543164   2  O        139
   13.58622459    7.10507460    3.28455727   2  O        140
   14.41094219    5.22791557    5.05787623   2  O        141
   11.97005099    6.46523503    5.36218731   2  O        142
    9.95556718    6.98591870    7.04645678   2  O        143
   11.81906563    7.59868174    8.85685845   2  O        144
   12.27942860    9.55001351   10.63021474   2  O        145
   11.25456340    9.42797710    6.95881987   2  O        146
   14.30380474    8.75948132    9.02583702   2  O        147
   13.42427552    7.05691603   10.93847271   2  O        148
   13.26821647    5.48403828   13.15761262   2  O        149
   11.00172388    6.47454579   12.18386439   2  O        150
   12.29074093   14.46690092    3.41366031   2  O        151
   13.61106014   12.01504255    3.26928448   2  O        152
   14.36430826   10.15558677    5.09316734   2  O        153
   11.92172458   11.42381693    5.28510510   2  O        154
    9.95120498   11.86665744    7.05099156   2  O        155
   11.86299661   12.45917246    8.83149410   2  O        156
   12.27682845   14.42567478   10.61047448   2  O        157
   11.15981977   14.34314132    7.01654130   2  O        158
   14.31203800   13.69763375    9.01220256   2  O        159
   13.53191048   11.93367638   10.89694051   2  O        160
   13.30942991   10.26033815   13.10166309   2  O        161
   11.16221779   11.45023763   12.23758669   2  O        162
    1.66714248    2.84245080    1.91808218   1  H        163
    3.91620584    3.78954454    1.34549346   1  H        164
    0.70012851    1.85201163   11.51175946   1  H        165
    4.25381239   -0.12771344   13.52448874   1  H        166
    1.65173773    7.73314429    1.94247097   1  H        167
    3.88329257    8.70546698    1.33224986   1  H        168
    0.71088549    6.80270349   11.56186375   1  H        169
    3.87960119    6.12871121   13.70398517   1  H        170
    1.64317668   12.62421941    1.94888304   1  H        171
    3.87460523   13.59260931    1.32884521   1  H        172
    0.69399906   11.61715862   11.68904774   1  H        173
    4.62156519   10.53675654   13.04040534   1  H        174
    6.52902096    2.89062828    1.89076653   1  H        175
    8.81644735    3.76838296    1.36574952   1  H        176
    5.50599263    1.73071372   11.61665437   1  H        177
    9.48668746    0.43996271   13.01877857   1  H        178
    6.52218145    7.72242493    1.95065664   1  H        179
    8.74862412    8.69425767    1.32521202   1  H        180
    5.46797461    6.78055520   11.42501339   1  H        181
    9.39592463    5.70376911   12.97178139   1  H        182
    6.53226151   12.61096921    1.91128582   1  H        183
    8.75250129   13.64104046    1.35629878   1  H        184
    5.60318712   11.70521750   11.46244868   1  H        185
    9.24030568    9.81573400   13.26084795   1  H        186
   11.39076746    2.85260241    1.94632410   1  H        187
   13.63728711    3.77708841    1.32703579   1  H        188
   10.42460016    1.83173809   11.60055855   1  H        189
   14.33165558    0.60154248   13.05329351   1  H        190
   11.37610378    7.72053312    1.99587490   1  H        191
   13.58722834    8.67605055    1.29436848   1  H        192
   10.39327089    6.73770867   11.44250704   1  H        193
   14.24217053    5.59093680   13.16348458   1  H        194
   11.38363402   12.58517334    1.98741899   1  H        195
   13.56616395   13.61542285    1.30062638   1  H        196
   10.41790506   11.68667820   11.64790295   1  H        197
   14.28297606   10.31712833   13.16010827   1  H        198
    5.71849176    1.63795987   15.19633115   2  O        199
    6.48125741    2.24865393   15.00779819   1  H        200
    4.96715613    2.00254271   14.69655252   1  H        201
   10.54267076    8.92614480   13.73288777   2  O        202
   10.74231952    8.04967415   13.34890579   1  H        203
   11.40347308    9.33563657   13.93206404   1  H        204
    7.93000731    3.10146948   14.63631450   2  O        205
    8.00802870    3.91625389   14.10210616   1  H        206
    8.44736030    2.41797571   14.17350654   1  H        207
    3.94204077    7.61633802   14.48155722   2  O        208
    3.86740258    8.48685372   14.03835871   1  H        209
    3.84923163    7.77413877   15.42983602   1  H        210
    5.29161095   13.96338372   14.27381352   2  O        211
    5.97140187   13.42261723   13.84100797   1  H        212
    5.70056710   14.80067151   14.67836580   1  H        213
%endblock AtomicCoordinatesAndAtomicSpecies
************************** End of input data file *****************************

reinit: -----------------------------------------------------------------------
reinit: System Name:                                                            
reinit: -----------------------------------------------------------------------
reinit: System Label: wat5sio2-a                                                  
reinit: -----------------------------------------------------------------------

initatom: Reading input for the pseudopotentials and atomic orbitals ----------
 Species number:            1  Label: H Atomic number:           1
 Species number:            2  Label: O Atomic number:           8
 Species number:            3  Label: Si Atomic number:          14
Ground state valence configuration:   1s01
Reading pseudopotential information in formatted form from H.psf
Ground state valence configuration:   2s02  2p04
Reading pseudopotential information in formatted form from O.psf
Ground state valence configuration:   3s02  3p02
Reading pseudopotential information in formatted form from Si.psf
resizes: Read basis size for species H = dzp                 
resizes: Read basis size for species O = dzp                 
resizes: Read basis size for species Si = dzp                 
For H, standard SIESTA heuristics set lmxkb to 2
 (one more than the basis l, including polarization orbitals).
Use PS.lmax or PS.KBprojectors blocks to override.
For O, standard SIESTA heuristics set lmxkb to 3
 (one more than the basis l, including polarization orbitals).
Use PS.lmax or PS.KBprojectors blocks to override.
For Si, standard SIESTA heuristics set lmxkb to 3
 (one more than the basis l, including polarization orbitals).
Use PS.lmax or PS.KBprojectors blocks to override.

<basis_specs>
===============================================================================
H                    Z=   1    Mass=  1.0100        Charge=  0.0000    
Lmxo=0 Lmxkb=2     BasisType=split      Semic=F
L=0  Nsemic=0  Cnfigmx=1
          n=1  nzeta=2  polorb=1
               vcte:    0.0000    
               rinn:    0.0000    
                rcs:    0.0000      0.0000    
            lambdas:    1.0000      1.0000    
-------------------------------------------------------------------------------
L=0  Nkbl=1  erefs: 0.17977+309
L=1  Nkbl=1  erefs: 0.17977+309
L=2  Nkbl=1  erefs: 0.17977+309
===============================================================================
</basis_specs>

atom: Called for H   (Z =   1)

read_vps: Pseudopotential generation method:
read_vps: ATM 3.2.2 Troullier-Martins                       

read_vps: Valence configuration (pseudopotential and basis set generation):
1s( 1.00) rc: 1.33
2p( 0.00) rc: 1.33
3d( 0.00) rc: 0.37
Total valence charge:    1.00000

xc_check: Exchange-correlation functional:
xc_check: GGA RPBE
xc_check: WARNING: Pseudopotential generated with GGA Perdew, Burke & Ernzerhof 1996 functional
V l=0 = -2*Zval/r beyond r=  1.2656
V l=1 = -2*Zval/r beyond r=  1.2498
V l=2 = -2*Zval/r beyond r=  0.3563
All V_l potentials equal beyond r=  1.2656
This should be close to max(r_c) in ps generation
All pots = -2*Zval/r beyond r=  1.2656

VLOCAL1: 99.0% of the norm of Vloc inside     27.100 Ry
VLOCAL1: 99.9% of the norm of Vloc inside     61.762 Ry
atom: Maximum radius for 4*pi*r*r*local-pseudopot. charge    1.48935
atom: Maximum radius for r*vlocal+2*Zval:    1.24984
GHOST: No ghost state for L =  0
GHOST: No ghost state for L =  1
GHOST: No ghost state for L =  2

KBgen: Kleinman-Bylander projectors: 
   l= 0   rc=  1.398961   el= -0.485803   Ekb= -2.000785   kbcos= -0.355577
   l= 1   rc=  1.470814   el=  0.001005   Ekb= -0.423466   kbcos= -0.024820
   l= 2   rc=  1.489346   el=  0.001895   Ekb= -0.482530   kbcos= -0.001603

KBgen: Total number of  Kleinman-Bylander projectors:    9
atom: -------------------------------------------------------------------------

atom: SANKEY-TYPE ORBITALS:
atom: Selected multiple-zeta basis: split     

SPLIT: Orbitals with angular momentum L= 0

SPLIT: Basis orbitals for state 1s

SPLIT: PAO cut-off radius determined from an
SPLIT: energy shift=  0.020000 Ry

   izeta = 1
                 lambda =    1.000000
                     rc =    4.708991
                 energy =   -0.466459
                kinetic =    0.995263
    potential(screened) =   -1.461721
       potential(ionic) =   -1.981935

   izeta = 2
                 rmatch =    3.759707
              splitnorm =    0.150000
                 energy =   -0.349285
                kinetic =    1.597774
    potential(screened) =   -1.947059
       potential(ionic) =   -2.483300

POLgen: Perturbative polarization orbital with L=  1

POLgen: Polarization orbital for state 1s

   izeta = 1
                     rc =    4.708991
                 energy =    0.774796
                kinetic =    1.495153
    potential(screened) =   -0.720357
       potential(ionic) =   -1.212714
atom: Total number of Sankey-type orbitals:  5

atm_pop: Valence configuration(local Pseudopot. screening):
 1s( 1.00)                                                            
Vna: chval, zval:    1.00000   1.00000

Vna:  Cut-off radius for the neutral-atom potential:   4.708991

atom: _________________________________________________________________________

<basis_specs>
===============================================================================
O                    Z=   8    Mass=  16.000        Charge=  0.0000    
Lmxo=1 Lmxkb=3     BasisType=split      Semic=F
L=0  Nsemic=0  Cnfigmx=2
          n=1  nzeta=2  polorb=0
               vcte:    0.0000    
               rinn:    0.0000    
                rcs:    0.0000      0.0000    
            lambdas:    1.0000      1.0000    
L=1  Nsemic=0  Cnfigmx=2
          n=1  nzeta=2  polorb=1
               vcte:    0.0000    
               rinn:    0.0000    
                rcs:    0.0000      0.0000    
            lambdas:    1.0000      1.0000    
-------------------------------------------------------------------------------
L=0  Nkbl=1  erefs: 0.17977+309
L=1  Nkbl=1  erefs: 0.17977+309
L=2  Nkbl=1  erefs: 0.17977+309
L=3  Nkbl=1  erefs: 0.17977+309
===============================================================================
</basis_specs>

atom: Called for O   (Z =   8)

read_vps: Pseudopotential generation method:
read_vps: ATM 3.2.2 Troullier-Martins                       

read_vps: Valence configuration (pseudopotential and basis set generation):
2s( 2.00) rc: 1.47
2p( 4.00) rc: 1.47
3d( 0.00) rc: 1.47
4f( 0.00) rc: 1.47
Total valence charge:    6.00000

xc_check: Exchange-correlation functional:
xc_check: GGA RPBE
xc_check: WARNING: Pseudopotential generated with GGA Perdew, Burke & Ernzerhof 1996 functional
V l=0 = -2*Zval/r beyond r=  1.3776
V l=1 = -2*Zval/r beyond r=  1.3949
V l=2 = -2*Zval/r beyond r=  1.3776
V l=3 = -2*Zval/r beyond r=  1.3776
All V_l potentials equal beyond r=  1.3776
This should be close to max(r_c) in ps generation
All pots = -2*Zval/r beyond r=  1.3949

VLOCAL1: 99.0% of the norm of Vloc inside     22.873 Ry
VLOCAL1: 99.9% of the norm of Vloc inside     52.129 Ry
atom: Maximum radius for 4*pi*r*r*local-pseudopot. charge    1.66175
atom: Maximum radius for r*vlocal+2*Zval:    1.44823
GHOST: No ghost state for L =  0
GHOST: No ghost state for L =  1
GHOST: No ghost state for L =  2
GHOST: No ghost state for L =  3

KBgen: Kleinman-Bylander projectors: 
   l= 0   rc=  1.541657   el= -1.766409   Ekb=  4.948669   kbcos=  0.327947
   l= 1   rc=  1.522502   el= -0.667930   Ekb= -7.162636   kbcos= -0.479135
   l= 2   rc=  1.620715   el=  0.001915   Ekb= -1.528730   kbcos= -0.006204
   l= 3   rc=  1.661751   el=  0.002982   Ekb= -0.589391   kbcos= -0.000814

KBgen: Total number of  Kleinman-Bylander projectors:   16
atom: -------------------------------------------------------------------------

atom: SANKEY-TYPE ORBITALS:
atom: Selected multiple-zeta basis: split     

SPLIT: Orbitals with angular momentum L= 0

SPLIT: Basis orbitals for state 2s

SPLIT: PAO cut-off radius determined from an
SPLIT: energy shift=  0.020000 Ry

   izeta = 1
                 lambda =    1.000000
                     rc =    3.305093
                 energy =   -1.749134
                kinetic =    1.610904
    potential(screened) =   -3.360038
       potential(ionic) =  -11.351183

   izeta = 2
                 rmatch =    2.479194
              splitnorm =    0.150000
                 energy =   -1.495333
                kinetic =    2.422624
    potential(screened) =   -3.917957
       potential(ionic) =  -12.497887

SPLIT: Orbitals with angular momentum L= 1

SPLIT: Basis orbitals for state 2p

SPLIT: PAO cut-off radius determined from an
SPLIT: energy shift=  0.020000 Ry

   izeta = 1
                 lambda =    1.000000
                     rc =    3.937239
                 energy =   -0.649968
                kinetic =    4.776535
    potential(screened) =   -5.426503
       potential(ionic) =  -13.170863

   izeta = 2
                 rmatch =    2.541963
              splitnorm =    0.150000
                 energy =   -0.378604
                kinetic =    6.999227
    potential(screened) =   -7.377831
       potential(ionic) =  -15.959565

POLgen: Perturbative polarization orbital with L=  2

POLgen: Polarization orbital for state 2p

   izeta = 1
                     rc =    3.937239
                 energy =    2.445532
                kinetic =    4.859743
    potential(screened) =   -2.414211
       potential(ionic) =   -8.772277
atom: Total number of Sankey-type orbitals: 13

atm_pop: Valence configuration(local Pseudopot. screening):
 2s( 2.00)                                                            
 2p( 4.00)                                                            
Vna: chval, zval:    6.00000   6.00000

Vna:  Cut-off radius for the neutral-atom potential:   3.937239

atom: _________________________________________________________________________

<basis_specs>
===============================================================================
Si                   Z=  14    Mass=  28.090        Charge=  0.0000    
Lmxo=1 Lmxkb=3     BasisType=split      Semic=F
L=0  Nsemic=0  Cnfigmx=3
          n=1  nzeta=2  polorb=0
               vcte:    0.0000    
               rinn:    0.0000    
                rcs:    0.0000      0.0000    
            lambdas:    1.0000      1.0000    
L=1  Nsemic=0  Cnfigmx=3
          n=1  nzeta=2  polorb=1
               vcte:    0.0000    
               rinn:    0.0000    
                rcs:    0.0000      0.0000    
            lambdas:    1.0000      1.0000    
-------------------------------------------------------------------------------
L=0  Nkbl=1  erefs: 0.17977+309
L=1  Nkbl=1  erefs: 0.17977+309
L=2  Nkbl=1  erefs: 0.17977+309
L=3  Nkbl=1  erefs: 0.17977+309
===============================================================================
</basis_specs>

atom: Called for Si  (Z =  14)

read_vps: Pseudopotential generation method:
read_vps: ATM 3.2.2 Troullier-Martins                       

read_vps: Valence configuration (pseudopotential and basis set generation):
3s( 2.00) rc: 1.77
3p( 2.00) rc: 1.96
3d( 0.00) rc: 2.11
4f( 0.00) rc: 2.11
Total valence charge:    4.00000

xc_check: Exchange-correlation functional:
xc_check: GGA RPBE
xc_check: WARNING: Pseudopotential generated with GGA Perdew, Burke & Ernzerhof 1996 functional
V l=0 = -2*Zval/r beyond r=  1.7304
V l=1 = -2*Zval/r beyond r=  1.9124
V l=2 = -2*Zval/r beyond r=  2.0613
V l=3 = -2*Zval/r beyond r=  2.0613
All V_l potentials equal beyond r=  2.0613
This should be close to max(r_c) in ps generation
All pots = -2*Zval/r beyond r=  2.0613

VLOCAL1: 99.0% of the norm of Vloc inside     10.216 Ry
VLOCAL1: 99.9% of the norm of Vloc inside     23.282 Ry
atom: Maximum radius for 4*pi*r*r*local-pseudopot. charge    2.45560
atom: Maximum radius for r*vlocal+2*Zval:    2.14012
GHOST: No ghost state for L =  0
GHOST: No ghost state for L =  1
GHOST: No ghost state for L =  2
GHOST: No ghost state for L =  3

KBgen: Kleinman-Bylander projectors: 
   l= 0   rc=  2.278153   el= -0.800315   Ekb=  4.678263   kbcos=  0.294943
   l= 1   rc=  2.306811   el= -0.303085   Ekb=  1.498392   kbcos=  0.309175
   l= 2   rc=  2.335829   el=  0.001958   Ekb= -2.260459   kbcos= -0.054019
   l= 3   rc=  2.425092   el=  0.003046   Ekb= -0.701367   kbcos= -0.005397

KBgen: Total number of  Kleinman-Bylander projectors:   16
atom: -------------------------------------------------------------------------

atom: SANKEY-TYPE ORBITALS:
atom: Selected multiple-zeta basis: split     

SPLIT: Orbitals with angular momentum L= 0

SPLIT: Basis orbitals for state 3s

SPLIT: PAO cut-off radius determined from an
SPLIT: energy shift=  0.020000 Ry

   izeta = 1
                 lambda =    1.000000
                     rc =    5.007352
                 energy =   -0.782432
                kinetic =    0.586978
    potential(screened) =   -1.369410
       potential(ionic) =   -3.825884

   izeta = 2
                 rmatch =    4.418952
              splitnorm =    0.150000
                 energy =   -0.685660
                kinetic =    0.892942
    potential(screened) =   -1.578603
       potential(ionic) =   -4.128736

SPLIT: Orbitals with angular momentum L= 1

SPLIT: Basis orbitals for state 3p

SPLIT: PAO cut-off radius determined from an
SPLIT: energy shift=  0.020000 Ry

   izeta = 1
                 lambda =    1.000000
                     rc =    6.270866
                 energy =   -0.285027
                kinetic =    0.884690
    potential(screened) =   -1.169717
       potential(ionic) =   -3.425855

   izeta = 2
                 rmatch =    4.945148
              splitnorm =    0.150000
                 energy =   -0.199783
                kinetic =    1.248954
    potential(screened) =   -1.448737
       potential(ionic) =   -3.873142

POLgen: Perturbative polarization orbital with L=  2

POLgen: Polarization orbital for state 3p

   izeta = 1
                     rc =    6.270866
                 energy =    0.444699
                kinetic =    1.318750
    potential(screened) =   -0.874052
       potential(ionic) =   -2.950420
atom: Total number of Sankey-type orbitals: 13

atm_pop: Valence configuration(local Pseudopot. screening):
 3s( 2.00)                                                            
 3p( 2.00)                                                            
Vna: chval, zval:    4.00000   4.00000

Vna:  Cut-off radius for the neutral-atom potential:   6.270866

atom: _________________________________________________________________________

prinput: Basis input ----------------------------------------------------------

PAO.BasisType split     

%block ChemicalSpeciesLabel
    1    1 H                       # Species index, atomic number, species label
    2    8 O                       # Species index, atomic number, species label
    3   14 Si                      # Species index, atomic number, species label
%endblock ChemicalSpeciesLabel

%block PAO.Basis                 # Define Basis set
H           1                    # Species label, number of l-shells
 n=1   0   2 P   1                   # n, l, Nzeta, Polarization, NzetaPol
   4.709      3.760   
   1.000      1.000   
O           2                    # Species label, number of l-shells
 n=2   0   2                         # n, l, Nzeta 
   3.305      2.479   
   1.000      1.000   
 n=2   1   2 P   1                   # n, l, Nzeta, Polarization, NzetaPol
   3.937      2.542   
   1.000      1.000   
Si          2                    # Species label, number of l-shells
 n=3   0   2                         # n, l, Nzeta 
   5.007      4.419   
   1.000      1.000   
 n=3   1   2 P   1                   # n, l, Nzeta, Polarization, NzetaPol
   6.271      4.945   
   1.000      1.000   
%endblock PAO.Basis

prinput: ----------------------------------------------------------------------


siesta: ******************** Simulation parameters ****************************
siesta:
siesta: The following are some of the parameters of the simulation.
siesta: A complete list of the parameters used, including default values,
siesta: can be found in file out.fdf
siesta:
coor:   Atomic-coordinates input format  =     Cartesian coordinates
coor:                                          (in Angstroms)
redata: Number of spin components        =     1
redata: Long output                      =     T
redata: Number of Atomic Species         =     3
redata: Charge density info will appear in .RHO file
redata: Write Mulliken Pop.              =     Atomic and Orbital charges
redata: Mesh Cutoff                      =   200.0000  Ry
redata: Net charge of the system         =     0.0000 |e|
redata: Max. number of SCF Iter          =   500
redata: Performing Pulay mixing using    =    30 iterations
redata: Mix DM in first SCF step ?       =     F
redata: Write Pulay info on disk?        =     F
redata: New DM Mixing Weight             =     0.0500
redata: New DM Occupancy tolerance       = 0.000000000001
redata: No kicks to SCF
redata: DM Mixing Weight for Kicks       =     0.5000
redata: DM Tolerance for SCF             =     0.000100
redata: Require Energy convergence for SCF =     F
redata: DM Energy tolerance for SCF      =     0.000100 eV
redata: Using Saved Data (generic)   =     F
redata: Use continuation files for DM    =     F
redata: Neglect nonoverlap interactions  =     F
redata: Method of Calculation            =     Diagonalization
redata: Divide and Conquer               =     T
redata: Electronic Temperature           =     0.0019  Ry
redata: Fix the spin of the system       =     F
redata: Dynamics option                  =     CG coord. optimization
redata: Variable cell                    =     T
redata: Use continuation files for CG    =     T
redata: Max atomic displ per move        =     0.2000  Bohr
redata: Maximum number of CG moves       =  9000
redata: Force tolerance                  =     0.0016  Ry/Bohr
redata: Stress tolerance                 =     1.0000  GPa
redata: ***********************************************************************

siesta: WARNING: XV file not found

siesta: Atomic coordinates (Bohr) and species
siesta:      5.61256   6.38613   4.60644  3        1
siesta:      6.14197   1.83572   8.11796  3        2
siesta:      1.56623   1.66487  11.65362  3        3
siesta:      1.56832   6.20794  15.19764  3        4
siesta:      6.11824   6.19640  18.79097  3        5
siesta:      5.26576   1.64838  22.34474  3        6
siesta:      5.59435  15.64430   4.60644  3        7
siesta:      6.25752  11.09041   8.09655  3        8
siesta:      1.69412  10.91754  11.63326  3        9
siesta:      1.55025  15.43822  15.10324  3       10
siesta:      6.08925  15.43986  18.61134  3       11
siesta:      5.28288  10.98184  22.28332  3       12
siesta:      5.57614  24.90247   4.60644  3       13
siesta:      6.23250  20.35758   8.10112  3       14
siesta:      1.66871  20.19596  11.64678  3       15
siesta:      1.60586  24.74949  15.14481  3       16
siesta:      6.12178  24.70753  18.78670  3       17
siesta:      5.25132  20.12108  22.23514  3       18
siesta:     14.81815   6.37470   4.60644  3       19
siesta:     15.28442   1.78600   8.15790  3       20
siesta:     10.72608   1.64632  11.69108  3       21
siesta:     10.70456   6.18119  15.18419  3       22
siesta:     15.34684   6.28832  18.63315  3       23
siesta:     14.54979   1.75507  22.13981  3       24
siesta:     14.79994  15.63288   4.60644  3       25
siesta:     15.51529  11.07846   8.11040  3       26
siesta:     10.88019  10.87664  11.58730  3       27
siesta:     10.78027  15.44203  15.05151  3       28
siesta:     15.41383  15.72378  18.44517  3       29
siesta:     14.51765  11.33619  21.75073  3       30
siesta:     14.78173  24.89105   4.60644  3       31
siesta:     15.45540  20.35064   8.08951  3       32
siesta:     10.85587  20.21288  11.59608  3       33
siesta:     10.76924  24.68314  15.17288  3       34
siesta:     15.40645  24.80425  18.58711  3       35
siesta:     14.58672  20.39057  22.10373  3       36
siesta:     24.02374   6.36328   4.60644  3       37
siesta:     24.56456   1.82362   8.10692  3       38
siesta:     19.99799   1.68628  11.60163  3       39
siesta:     20.02852   6.22499  15.13142  3       40
siesta:     24.54789   6.30627  18.73143  3       41
siesta:     23.71048   1.73041  22.16826  3       42
siesta:     24.00553  15.62145   4.60644  3       43
siesta:     24.74149  11.09713   8.08677  3       44
siesta:     20.15118  10.94156  11.59371  3       45
siesta:     20.04244  15.56967  14.96283  3       46
siesta:     24.49067  15.61549  18.64888  3       47
siesta:     23.64056  11.10147  22.21978  3       48
siesta:     23.98732  24.87963   4.60644  3       49
siesta:     24.71157  20.39321   8.05035  3       50
siesta:     20.13385  20.23810  11.50713  3       51
siesta:     20.03416  24.74176  15.03863  3       52
siesta:     24.54034  24.84481  18.61214  3       53
siesta:     23.74529  20.37001  22.15353  3       54
siesta:      4.84998   8.85858   6.41331  2       55
siesta:      7.17187   4.19615   6.31620  2       56
siesta:      8.52412   0.59540   9.72754  2       57
siesta:      3.94587   2.97287  10.06255  2       58
siesta:      0.31962   3.88388  13.49805  2       59
siesta:      3.95204   5.00192  16.83417  2       60
siesta:      4.78363   8.57469  20.31002  2       61
siesta:      2.67079   8.51850  13.37690  2       62
siesta:      8.55240   7.31908  17.14643  2       63
siesta:      7.02141   3.84497  20.69715  2       64
siesta:      6.60139   0.99886  24.98451  2       65
siesta:      2.39481   2.72881  23.04832  2       66
siesta:      4.83017  18.11768   6.42634  2       67
siesta:      7.21287  13.43933   6.24490  2       68
siesta:      8.75626   9.85262   9.52436  2       69
siesta:      4.17504  12.18619  10.18611  2       70
siesta:      0.30423  13.15495  13.35413  2       71
siesta:      3.92734  14.18589  16.71527  2       72
siesta:      4.73463  17.76668  20.21306  2       73
siesta:      2.67825  17.76564  13.34178  2       74
siesta:      8.54153  16.51400  16.99097  2       75
siesta:      7.00867  13.15859  20.59549  2       76
siesta:      6.94058  10.13926  24.73328  2       77
siesta:      2.44819  12.08783  23.11981  2       78
siesta:      4.81149  27.40034   6.39655  2       79
siesta:      7.19663  22.71437   6.26399  2       80
siesta:      8.72169  19.14398   9.56444  2       81
siesta:      4.12992  21.45546  10.16564  2       82
siesta:      0.37472  22.41593  13.44635  2       83
siesta:      3.98390  23.53829  16.79365  2       84
siesta:      4.84013  27.06978  20.31868  2       85
siesta:      2.65139  27.08007  13.31530  2       86
siesta:      8.64917  25.71374  17.23515  2       87
siesta:      6.99383  22.34192  20.70495  2       88
siesta:      7.00667  19.21093  24.68879  2       89
siesta:      2.48132  21.13960  23.28711  2       90
siesta:     14.10821   8.83830   6.44182  2       91
siesta:     16.28627   4.08155   6.26577  2       92
siesta:     17.73681   0.60337   9.72103  2       93
siesta:     13.12560   2.93618  10.13527  2       94
siesta:      9.42435   3.85452  13.51017  2       95
siesta:     13.15256   4.98994  16.77178  2       96
siesta:     14.02128   8.79160  19.96436  2       97
siesta:     11.79700   8.47168  13.35241  2       98
siesta:     17.81212   7.35936  17.02341  2       99
siesta:     16.33361   4.02826  20.62655  2      100
siesta:     16.08586   0.98132  24.75758  2      101
siesta:     11.83556   2.90080  23.06521  2      102
siesta:     14.05290  18.10532   6.42546  2      103
siesta:     16.42837  13.43352   6.24804  2      104
siesta:     18.02020   9.86903   9.55481  2      105
siesta:     13.39243  12.12556  10.18405  2      106
siesta:      9.55537  13.13841  13.32449  2      107
siesta:     13.21229  14.31099  16.68438  2      108
siesta:     14.10718  18.10455  19.96277  2      109
siesta:     11.86105  17.80554  13.31839  2      110
siesta:     17.77635  16.85029  16.71351  2      111
siesta:     16.55534  13.38364  20.28028  2      112
siesta:     15.93018  10.47460  24.43740  2      113
siesta:     11.91449  12.77042  22.55314  2      114
siesta:     13.93988  27.30461   6.49224  2      115
siesta:     16.41994  22.68706   6.22459  2      116
siesta:     17.94430  19.13489   9.55196  2      117
siesta:     13.32903  21.46625  10.12989  2      118
siesta:      9.53039  22.42402  13.39022  2      119
siesta:     13.23243  23.49582  16.72458  2      120
siesta:     14.12555  27.21992  20.09784  2      121
siesta:     11.75081  27.07657  13.39811  2      122
siesta:     17.81562  25.89342  16.92311  2      123
siesta:     16.40745  22.58862  20.60509  2      124
siesta:     15.85199  19.49500  24.72775  2      125
siesta:     11.78743  21.61254  22.98313  2      126
siesta:     23.33228   8.83574   6.44407  2      127
siesta:     25.60285   4.11010   6.22210  2      128
siesta:     26.96798   0.63078   9.73937  2      129
siesta:     22.35184   3.00283   9.99995  2      130
siesta:     18.76851   3.91150  13.43850  2      131
siesta:     22.39677   5.04756  16.81524  2      132
siesta:     23.20773   8.69617  20.24254  2      133
siesta:     21.14314   8.55063  13.35185  2      134
siesta:     27.03334   7.34147  17.12604  2      135
siesta:     25.43952   4.02116  20.70407  2      136
siesta:     25.26061   0.78669  24.67567  2      137
siesta:     20.88484   2.69584  23.13267  2      138
siesta:     23.32733  18.11839   6.41644  2      139
siesta:     25.67425  13.42665   6.20692  2      140
siesta:     27.23274   9.87933   9.55800  2      141
siesta:     22.62013  12.21753  10.13307  2      142
siesta:     18.81330  13.20148  13.31588  2      143
siesta:     22.33481  14.35943  16.73704  2      144
siesta:     23.20477  18.04692  20.08820  2      145
siesta:     21.26805  17.81630  13.15027  2      146
siesta:     27.03028  16.55303  17.05637  2      147
siesta:     25.36821  13.33564  20.67073  2      148
siesta:     25.07331  10.36333  24.86429  2      149
siesta:     20.79025  12.23512  23.02418  2      150
siesta:     23.22614  27.33849   6.45089  2      151
siesta:     25.72119  22.70515   6.17805  2      152
siesta:     27.14462  19.19129   9.62470  2      153
siesta:     22.52880  21.58789   9.98741  2      154
siesta:     18.80506  22.42474  13.32445  2      155
siesta:     22.41782  23.54443  16.68911  2      156
siesta:     23.19985  27.26059  20.05090  2      157
siesta:     21.08901  27.10462  13.25935  2      158
siesta:     27.04584  25.88479  17.03060  2      159
siesta:     25.57161  22.55139  20.59224  2      160
siesta:     25.15119  19.38924  24.75856  2      161
siesta:     21.09354  21.63782  23.12570  2      162
siesta:      3.15044   5.37146   3.62465  1      163
siesta:      7.40056   7.16120   2.54262  1      164
siesta:      1.32305   3.49980  21.75408  1      165
siesta:      8.03854  -0.24134  25.55759  1      166
siesta:      3.12133  14.61353   3.67074  1      167
siesta:      7.33836  16.45095   2.51759  1      168
siesta:      1.34338  12.85525  21.84876  1      169
siesta:      7.33139  11.58159  25.89679  1      170
siesta:      3.10516  23.85633   3.68286  1      171
siesta:      7.32195  25.68632   2.51115  1      172
siesta:      1.31147  21.95326  22.08911  1      173
siesta:      8.73350  19.91159  24.64280  1      174
siesta:     12.33807   5.46250   3.57303  1      175
siesta:     16.66068   7.12121   2.58089  1      176
siesta:     10.40482   3.27058  21.95230  1      177
siesta:     17.92725   0.83141  24.60194  1      178
siesta:     12.32514  14.59327   3.68621  1      179
siesta:     16.53251  16.42977   2.50429  1      180
siesta:     10.33298  12.81340  21.59015  1      181
siesta:     17.75573  10.77857  24.51312  1      182
siesta:     12.34419  23.83129   3.61181  1      183
siesta:     16.53984  25.77784   2.56303  1      184
siesta:     10.58849  22.11966  21.66090  1      185
siesta:     17.46165  18.54906  25.05938  1      186
siesta:     21.52544   5.39064   3.67802  1      187
siesta:     25.77075   7.13767   2.50774  1      188
siesta:     19.69965   3.46148  21.92189  1      189
siesta:     27.08291   1.13675  24.66716  1      190
siesta:     21.49773  14.58970   3.77166  1      191
siesta:     25.67615  16.39537   2.44600  1      192
siesta:     19.64044  12.73243  21.62321  1      193
siesta:     26.91381  10.56534  24.87539  1      194
siesta:     21.51196  23.78254   3.75568  1      195
siesta:     25.63634  25.72943   2.45783  1      196
siesta:     19.68700  22.08463  22.01136  1      197
siesta:     26.99092  19.49655  24.86901  1      198
siesta:     10.80639   3.09530  28.71692  2      199
siesta:     12.24781   4.24934  28.36064  1      200
siesta:      9.38657   3.78426  27.77247  1      201
siesta:     19.92277  16.86798  25.95141  2      202
siesta:     20.30005  15.21169  25.22579  1      203
siesta:     21.54945  17.64180  26.32780  1      204
siesta:     14.98555   5.86093  27.65864  2      205
siesta:     15.13299   7.40065  26.64913  1      206
siesta:     15.96320   4.56931  26.78406  1      207
siesta:      7.44938  14.39280  27.36619  2      208
siesta:      7.30833  16.03784  26.52866  1      209
siesta:      7.27400  14.69100  29.15818  1      210
siesta:      9.99970  26.38698  26.97361  2      211
siesta:     11.28432  25.36508  26.15572  1      212
siesta:     10.77251  27.96923  27.73810  1      213

initatomlists: Number of atoms, orbitals, and projectors:    213  2401  3086

siesta: System type = slab      

* ProcessorY, Blocksize:    2  24


siesta: k-point coordinates (Bohr**-1) and weights:
siesta:    1    0.000000    0.000000    0.000000       1.000000

siesta: k-grid: Number of k-points =     1
siesta: k-grid: Cutoff (effective) =     7.338 Ang
siesta: k-grid: Supercell and displacements
siesta: k-grid:    1   0   0      0.000
siesta: k-grid:    0   1   0      0.000
siesta: k-grid:    0   0   1      0.000

* Maximum dynamic memory allocated =     1 MB

siesta:                 ==============================
                            Begin CG move =      0
                        ==============================

outcoor: Atomic coordinates (Ang):                          
    2.97003781    3.37939138    2.43762000   3  Si         1
    3.25019165    0.97142009    4.29583805   3  Si         2
    0.82881234    0.88101269    6.16682632   3  Si         3
    0.82992151    3.28510033    8.04223961   3  Si         4
    3.23763359    3.27899297    9.94374657   3  Si         5
    2.78651946    0.87228475   11.82432401   3  Si         6
    2.96040139    8.27860300    2.43762000   3  Si         7
    3.31133415    5.86878952    4.28450800   3  Si         8
    0.89648741    5.77731209    6.15605600   3  Si         9
    0.82035735    8.16954963    7.99228500   3  Si        10
    3.22228921    8.17041787    9.84869400   3  Si        11
    2.79558047    5.81133779   11.79182200   3  Si        12
    2.95076596   13.17781362    2.43762000   3  Si        13
    3.29809724   10.77276061    4.28692500   3  Si        14
    0.88304426   10.68723764    6.16320700   3  Si        15
    0.84978668   13.09686199    8.01428700   3  Si        16
    3.23950378   13.07465635    9.94148700   3  Si        17
    2.77887969   10.64761507   11.76632500   3  Si        18
    7.84142509    3.37334709    2.43762000   3  Si        19
    8.08816546    0.94511151    4.31697200   3  Si        20
    5.67599263    0.87119505    6.18665000   3  Si        21
    5.66460663    3.27094382    8.03512300   3  Si        22
    8.12119282    3.32763586    9.86023600   3  Si        23
    7.69941409    0.92874069   11.71587700   3  Si        24
    7.83178867    8.27255870    2.43762000   3  Si        25
    8.21033658    5.86246773    4.29183700   3  Si        26
    5.75754860    5.75566741    6.13173300   3  Si        27
    5.70467130    8.17156702    7.96491400   3  Si        28
    8.15664223    8.32066091    9.76076200   3  Si        29
    7.68240443    5.99885193   11.50998800   3  Si        30
    7.82215224   13.17177032    2.43762000   3  Si        31
    8.17864335   10.76908982    4.28078100   3  Si        32
    5.74467599   10.69618950    6.13638000   3  Si        33
    5.69883580   13.06174802    8.02913700   3  Si        34
    8.15273635   13.12583923    9.83587100   3  Si        35
    7.71895771   10.79022077   11.69678500   3  Si        36
   12.71281137    3.36730379    2.43762000   3  Si        37
   12.99899953    0.96501948    4.28999500   3  Si        38
   10.58247633    0.89234214    6.13931700   3  Si        39
   10.59863302    3.29412375    8.00719800   3  Si        40
   12.99017619    3.33713513    9.91224400   3  Si        41
   12.54704232    0.91569439   11.73093300   3  Si        42
   12.70317595    8.26651441    2.43762000   3  Si        43
   13.09262719    5.87234446    4.27933100   3  Si        44
   10.66354145    5.79001935    6.13512600   3  Si        45
   10.60599998    8.23911275    7.91798600   3  Si        46
   12.95990169    8.26335751    9.86855800   3  Si        47
   12.51004264    5.87464378   11.75819500   3  Si        48
   12.69353952   13.16572602    2.43762000   3  Si        49
   13.07679238   10.79161785    4.26006200   3  Si        50
   10.65437134   10.70953823    6.08930600   3  Si        51
   10.60161695   13.09277206    7.95809700   3  Si        52
   12.98618541   13.14729972    9.84911900   3  Si        53
   12.56546171   10.77934245   11.72313600   3  Si        54
    2.56649768    4.68775877    3.39377800   2  O         55
    3.79518643    2.22050588    3.34238600   2  O         56
    4.51076684    0.31506993    5.14759300   2  O         57
    2.08806595    1.57317253    5.32487100   2  O         58
    0.16913324    2.05525943    7.14285800   2  O         59
    2.09132961    2.64690267    8.90825500   2  O         60
    2.53138452    4.53752950   10.74759800   2  O         61
    1.41332105    4.50779685    7.07874900   2  O         62
    4.52573283    3.87309094    9.07349900   2  O         63
    3.71556906    2.03466731   10.95245382   2  O         64
    3.49330579    0.52857118   13.22122843   2  O         65
    1.26727675    1.44402398   12.19664262   2  O         66
    2.55601715    9.58746214    3.40067314   2  O         67
    3.81688468    7.11178437    3.30465781   2  O         68
    4.63361227    5.21378238    5.04007470   2  O         69
    2.20933343    6.44865288    5.39025743   2  O         70
    0.16099358    6.96129745    7.06669818   2  O         71
    2.07825570    7.50684815    8.84533876   2  O         72
    2.50545829    9.40171874   10.69628524   2  O         73
    1.41726933    9.40116564    7.06016251   2  O         74
    4.51998168    8.73883028    8.99123031   2  O         75
    3.70882550    6.96322090   10.89865787   2  O         76
    3.67279686    5.36546150   13.08828228   2  O         77
    1.29552567    6.39660192   12.23447211   2  O         78
    2.54613090   14.49963229    3.38490583   2  O         79
    3.80829304   12.01992441    3.31476180   2  O         80
    4.61531935   10.13055597    5.06128092   2  O         81
    2.18545819   11.35373681    5.37942380   2  O         82
    0.19829486   11.86199213    7.11549746   2  O         83
    2.10818819   12.45592282    8.88681274   2  O         84
    2.56128577   14.32470271   10.75217614   2  O         85
    1.40305251   14.33015184    7.04615121   2  O         86
    4.57694430   13.60711738    9.12044658   2  O         87
    3.70097150   11.82283006   10.95658426   2  O         88
    3.70777058   10.16598172   13.06473724   2  O         89
    1.31305983   11.18659066   12.32300178   2  O         90
    7.46573814    4.67702533    3.40886528   2  O         91
    8.61832017    2.15986196    3.31570292   2  O         92
    9.38591220    0.31929136    5.14414464   2  O         93
    6.94576667    1.55375870    5.36335066   2  O         94
    4.98714927    2.03972211    7.14927207   2  O         95
    6.96003224    2.64056395    8.87524178   2  O         96
    7.41973697    4.65231344   10.56467811   2  O         97
    6.24270160    4.48301905    7.06578734   2  O         98
    9.42576587    3.89440318    9.00839859   2  O         99
    8.64336919    2.13166207   10.91509755   2  O        100
    8.51226883    0.51929303   13.10114186   2  O        101
    6.26310815    1.53503910   12.20557804   2  O        102
    7.43646889    9.58091685    3.40020512   2  O        103
    8.69351340    7.10870734    3.30631750   2  O        104
    9.53587730    5.22246432    5.05618647   2  O        105
    7.08696526    6.41656725    5.38916369   2  O        106
    5.05648459    6.95254363    7.05101197   2  O        107
    6.99164008    7.57304746    8.82898767   2  O        108
    7.46519338    9.58051000   10.56383800   2  O        109
    6.27659560    9.42228176    7.04778489   2  O        110
    9.40683549    8.91678696    8.84440555   2  O        111
    8.76070727    7.08231614   10.73185566   2  O        112
    8.42988327    5.54291917   12.93170812   2  O        113
    6.30487568    6.75781222   11.93460167   2  O        114
    7.37666337   14.44896985    3.43554180   2  O        115
    8.68905558   12.00546967    3.29390754   2  O        116
    9.49570820   10.12574464    5.05467991   2  O        117
    7.05341855   11.35944558    5.36050430   2  O        118
    5.04326489   11.86627410    7.08579463   2  O        119
    7.00229918   12.43344650    8.85026222   2  O        120
    7.47491785   14.40415576   10.63531575   2  O        121
    6.21825940   14.32829593    7.08997419   2  O        122
    9.42761691   13.70220195    8.95532279   2  O        123
    8.68244731   11.95337571   10.90373793   2  O        124
    8.38851054   10.31630483   13.08535398   2  O        125
    6.23763471   11.43685813   12.16214281   2  O        126
   12.34690695    4.67567065    3.41005181   2  O        127
   13.54843946    2.17497056    3.29259231   2  O        128
   14.27083263    0.33379580    5.15385109   2  O        129
   11.82808225    1.58902957    5.29174495   2  O        130
    9.93186162    2.06987735    7.11134318   2  O        131
   11.85185385    2.67105136    8.89823923   2  O        132
   12.28099714    4.60181355   10.71188905   2  O        133
   11.18846588    4.52479500    7.06549261   2  O        134
   14.30542420    3.88493444    9.06270714   2  O        135
   13.46200739    2.12790614   10.95611613   2  O        136
   13.36733247    0.41629784   13.05779592   2  O        137
   11.05177914    1.42657409   12.24127630   2  O        138
   12.34428849    9.58783696    3.39543164   2  O        139
   13.58622459    7.10507460    3.28455727   2  O        140
   14.41094219    5.22791557    5.05787623   2  O        141
   11.97005099    6.46523503    5.36218731   2  O        142
    9.95556718    6.98591870    7.04645678   2  O        143
   11.81906563    7.59868174    8.85685845   2  O        144
   12.27942860    9.55001351   10.63021474   2  O        145
   11.25456340    9.42797710    6.95881987   2  O        146
   14.30380474    8.75948132    9.02583702   2  O        147
   13.42427552    7.05691603   10.93847271   2  O        148
   13.26821647    5.48403828   13.15761262   2  O        149
   11.00172388    6.47454579   12.18386439   2  O        150
   12.29074093   14.46690092    3.41366031   2  O        151
   13.61106014   12.01504255    3.26928448   2  O        152
   14.36430826   10.15558677    5.09316734   2  O        153
   11.92172458   11.42381693    5.28510510   2  O        154
    9.95120498   11.86665744    7.05099156   2  O        155
   11.86299661   12.45917246    8.83149410   2  O        156
   12.27682845   14.42567478   10.61047448   2  O        157
   11.15981977   14.34314132    7.01654130   2  O        158
   14.31203800   13.69763375    9.01220256   2  O        159
   13.53191048   11.93367638   10.89694051   2  O        160
   13.30942991   10.26033815   13.10166309   2  O        161
   11.16221779   11.45023763   12.23758669   2  O        162
    1.66714248    2.84245080    1.91808218   1  H        163
    3.91620584    3.78954454    1.34549346   1  H        164
    0.70012851    1.85201163   11.51175946   1  H        165
    4.25381239   -0.12771344   13.52448874   1  H        166
    1.65173773    7.73314429    1.94247097   1  H        167
    3.88329257    8.70546698    1.33224986   1  H        168
    0.71088549    6.80270349   11.56186375   1  H        169
    3.87960119    6.12871121   13.70398517   1  H        170
    1.64317668   12.62421941    1.94888304   1  H        171
    3.87460523   13.59260931    1.32884521   1  H        172
    0.69399906   11.61715862   11.68904774   1  H        173
    4.62156519   10.53675654   13.04040534   1  H        174
    6.52902096    2.89062828    1.89076653   1  H        175
    8.81644735    3.76838296    1.36574952   1  H        176
    5.50599263    1.73071372   11.61665437   1  H        177
    9.48668746    0.43996271   13.01877857   1  H        178
    6.52218145    7.72242493    1.95065664   1  H        179
    8.74862412    8.69425767    1.32521202   1  H        180
    5.46797461    6.78055520   11.42501339   1  H        181
    9.39592463    5.70376911   12.97178139   1  H        182
    6.53226151   12.61096921    1.91128582   1  H        183
    8.75250129   13.64104046    1.35629878   1  H        184
    5.60318712   11.70521750   11.46244868   1  H        185
    9.24030568    9.81573400   13.26084795   1  H        186
   11.39076746    2.85260241    1.94632410   1  H        187
   13.63728711    3.77708841    1.32703579   1  H        188
   10.42460016    1.83173809   11.60055855   1  H        189
   14.33165558    0.60154248   13.05329351   1  H        190
   11.37610378    7.72053312    1.99587490   1  H        191
   13.58722834    8.67605055    1.29436848   1  H        192
   10.39327089    6.73770867   11.44250704   1  H        193
   14.24217053    5.59093680   13.16348458   1  H        194
   11.38363402   12.58517334    1.98741899   1  H        195
   13.56616395   13.61542285    1.30062638   1  H        196
   10.41790506   11.68667820   11.64790295   1  H        197
   14.28297606   10.31712833   13.16010827   1  H        198
    5.71849176    1.63795987   15.19633115   2  O        199
    6.48125741    2.24865393   15.00779819   1  H        200
    4.96715613    2.00254271   14.69655252   1  H        201
   10.54267076    8.92614480   13.73288777   2  O        202
   10.74231952    8.04967415   13.34890579   1  H        203
   11.40347308    9.33563657   13.93206404   1  H        204
    7.93000731    3.10146948   14.63631450   2  O        205
    8.00802870    3.91625389   14.10210616   1  H        206
    8.44736030    2.41797571   14.17350654   1  H        207
    3.94204077    7.61633802   14.48155722   2  O        208
    3.86740258    8.48685372   14.03835871   1  H        209
    3.84923163    7.77413877   15.42983602   1  H        210
    5.29161095   13.96338372   14.27381352   2  O        211
    5.97140187   13.42261723   13.84100797   1  H        212
    5.70056710   14.80067151   14.67836580   1  H        213

outcell: Unit cell vectors (Ang):
       14.676672   -0.035579    0.000000
       -0.046750   14.798342    0.000000
        0.000000    0.000000   40.000000

outcell: Cell vector modules (Ang)   :   14.676715   14.798416   40.000000
outcell: Cell angles (23,13,12) (deg):     90.0000     90.0000     90.3199
outcell: Cell volume (Ang**3)        :   8687.5499

InitMesh: MESH =   128 x   128 x   360 =     5898240
InitMesh: Mesh cutoff (required, used) =   200.000   206.778 Ry

* Maximum dynamic memory allocated =   307 MB

stepf: Fermi-Dirac step function

siesta: Program's energy decomposition (eV):
siesta: Eions   =     82909.569792
siesta: Ena     =     11421.497343
siesta: Ekin    =     37112.751299
siesta: Enl     =     -8131.994251
siesta: DEna    =        -0.000232
siesta: DUscf   =         0.000000
siesta: DUext   =         0.000000
siesta: Exc     =    -13088.477672
siesta: eta*DQ  =         0.000000
siesta: Emadel  =         0.000000
siesta: Ekinion =         0.000000
siesta: Eharris =    -55913.370901
siesta: Etot    =    -55595.793304
siesta: FreeEng =    -55595.793304

siesta: iscf   Eharris(eV)      E_KS(eV)   FreeEng(eV)   dDmax  Ef(eV)
siesta:    1   -55913.3709   -55595.7933   -55595.7933  1.8935 -1.6331
timer: Routine,Calls,Time,% = IterSCF        1     185.884  86.58
elaps: Routine,Calls,Wall,% = IterSCF        1      41.767  90.95
siesta:    2   -55959.5904   -55799.4520   -55799.4520  0.1926 -2.0481
siesta:    3   -55927.2491   -55803.1475   -55803.1475  0.1652 -1.6386
siesta:    4   -55863.6570   -55830.7815   -55830.7815  0.0471 -3.2907
siesta:    5   -55862.1624   -55831.7281   -55831.7281  0.0398 -3.3592
siesta:    6   -55861.6459   -55847.8718   -55847.8718  0.0160 -3.2600
siesta:    7   -55861.6337   -55851.0192   -55851.0192  0.0163 -3.2238
siesta:    8   -55861.5224   -55857.3746   -55857.3746  0.0047 -3.1929
siesta:    9   -55861.5169   -55859.0021   -55859.0021  0.0025 -3.2162
siesta:   10   -55861.5156   -55860.1555   -55860.1555  0.0012 -3.2334
siesta:   11   -55861.5153   -55861.0747   -55861.0747  0.0003 -3.2338
siesta:   12   -55861.5151   -55861.1638   -55861.1638  0.0003 -3.2324
siesta:   13   -55861.5151   -55861.4391   -55861.4391  0.0002 -3.2304
siesta:   14   -55861.5152   -55861.5161   -55861.5161  0.0000 -3.2306

siesta: E_KS(eV) =           -55861.5113

siesta: E_KS - E_eggbox =    -55861.5113

siesta: Atomic forces (eV/Ang):
     1   -0.054794   -0.067718   -0.157543
     2   -0.176397   -0.924908   -0.576079
     3   -0.068953   -1.265064    0.396425
     4   -0.584745    0.312672    0.517772
     5    0.012460    0.099548    0.046306
     6    0.016945   -0.889482   -0.614095
     7   -0.052380   -0.016180   -0.109878
     8    0.089737    0.065995   -0.042131
     9   -0.599506    0.050426   -0.478999
    10   -0.891424    0.373136    0.540926
    11    0.206109   -0.013876    0.254040
    12   -0.110179    0.016432   -0.152846
    13   -0.031210    0.160626    0.019205
    14    0.071699    0.105854    0.011218
    15   -0.578617    0.083096   -0.388557
    16   -0.832601    0.552255    0.383000
    17   -0.023336    0.364779   -0.067554
    18    0.204992    0.115534   -0.208615
    19   -0.014905   -0.151721   -0.165457
    20   -0.077795   -1.067298   -0.628448
    21    0.270263   -1.313261    0.819688
    22    0.348146   -0.023746    0.183563
    23   -0.188562    0.114425   -0.044137
    24   -0.054515   -0.617629   -0.994933
    25   -0.014170   -0.085986   -0.085360
    26    0.007137    0.071541    0.048052
    27    0.049096    0.093017    0.000055
    28   -0.058031    0.162375    0.218207
    29    0.043185    0.153329   -0.106209
    30   -0.083378   -0.271335    0.601540
    31   -0.052253    0.256203    0.155797
    32    0.002652    0.136463    0.067544
    33    0.045556    0.020921   -0.041517
    34    0.100260    0.398801   -0.117744
    35    0.033125    0.481686    0.162864
    36   -0.009025   -0.311322    0.318064
    37   -0.015313   -0.054844   -0.145864
    38    0.067128   -1.132649   -0.504753
    39    0.314014   -1.417383    0.748681
    40    0.029304    0.133655    0.095733
    41    0.080444    0.102713   -0.216785
    42    0.092027   -1.006173   -0.626661
    43   -0.015451   -0.036543   -0.143705
    44    0.136134   -0.031643    0.240780
    45    0.037536    0.063171   -0.059292
    46    0.043675    0.085900    0.038263
    47    0.356964   -0.127120   -0.192570
    48    0.338420    0.293291   -0.188698
    49    0.001918    0.181156    0.033957
    50    0.236741    0.108786    0.264812
    51    0.083576    0.051843    0.003324
    52    0.054103    0.377976   -0.152662
    53    0.532261   -0.061362    0.287696
    54   -0.195742    0.766970   -0.356288
    55   -0.072776    0.069620    0.057805
    56   -0.026443   -0.221069    0.066998
    57    0.155541   -0.017509    0.075391
    58   -0.163420   -0.162884    0.004949
    59    0.032385   -0.027769    0.117489
    60   -0.119216    0.004416    0.033903
    61    0.161909   -0.158937    0.065080
    62   -0.028405   -0.145443    0.067920
    63   -0.132220   -0.055847    0.109601
    64   -0.054456   -0.091251    0.000053
    65    0.263192   -0.170047    0.204784
    66    0.010753   -0.051973   -0.106568
    67   -0.027122   -0.067857   -0.024075
    68   -0.018267   -0.015965    0.023813
    69   -0.019371   -0.008767   -0.005003
    70   -0.062241   -0.074443    0.016762
    71    0.009469    0.049171    0.061444
    72   -0.100176   -0.024160   -0.014396
    73    0.025393   -0.002483   -0.058007
    74   -0.038488    0.007375   -0.036133
    75   -0.019570   -0.031765   -0.006088
    76   -0.014452    0.015309   -0.003427
    77   -0.020234    0.006460   -0.029208
    78   -0.052585    0.063043   -0.033160
    79    0.231573    0.887223    0.518391
    80   -0.013462   -0.045802    0.014753
    81   -0.035236   -0.063937   -0.010637
    82   -0.039469    0.001373    0.009931
    83    0.048871   -0.010333    0.063316
    84   -0.095264   -0.080754   -0.005828
    85   -0.006184    0.917448    0.614315
    86   -0.523567    1.258842   -0.766324
    87   -0.026150   -0.115406    0.028084
    88   -0.033921   -0.000553    0.027701
    89   -0.014918   -0.028314    0.007502
    90   -0.043626   -0.085095   -0.031904
    91    0.005792   -0.025020   -0.004487
    92   -0.069486   -0.089387    0.031196
    93    0.021647    0.081735    0.071319
    94   -0.013388   -0.059647   -0.036109
    95    0.048607   -0.136963   -0.018602
    96   -0.034421   -0.010842   -0.029373
    97   -0.012429   -0.047620   -0.026013
    98    0.005720   -0.064585    0.025140
    99    0.001540   -0.019579   -0.003953
   100   -0.019694   -0.077298   -0.022703
   101   -0.011494    0.023149    0.008528
   102    0.005112   -0.084394   -0.092418
   103   -0.009537   -0.071638   -0.036751
   104   -0.018239   -0.031677    0.012794
   105   -0.016130   -0.010747   -0.013370
   106   -0.015814   -0.004621    0.004847
   107   -0.009672   -0.029137   -0.010196
   108   -0.025788   -0.033959   -0.015605
   109   -0.003382   -0.053565   -0.006239
   110   -0.000759   -0.058259    0.026477
   111   -0.006036    0.010869   -0.003339
   112    0.011031   -0.009116   -0.008519
   113   -0.016569   -0.013818   -0.008759
   114   -0.007497   -0.000095   -0.005461
   115    0.253917    0.913823    0.482321
   116   -0.005000   -0.038019   -0.006882
   117   -0.030635   -0.071394   -0.018929
   118   -0.000552    0.046565    0.001083
   119   -0.033255   -0.143421   -0.036849
   120   -0.030541   -0.115975   -0.020475
   121   -0.001809    0.893558    0.662436
   122   -0.478244    1.248521   -0.739576
   123   -0.045594   -0.068884    0.031593
   124   -0.005995   -0.066718    0.036831
   125   -0.001450    0.034242    0.015300
   126   -0.034997   -0.018430    0.011347
   127   -0.038629   -0.032879   -0.008092
   128   -0.049584   -0.061169    0.004958
   129    0.509120    0.142331    0.325808
   130    0.013992   -0.043739   -0.057385
   131   -0.012475   -0.110415   -0.017376
   132   -0.015442   -0.025140   -0.027961
   133    0.021513   -0.036393   -0.012051
   134   -0.009417   -0.047140    0.008345
   135    0.625077   -0.322953   -0.498278
   136    0.009475   -0.136164    0.030641
   137    0.018613    0.084701    0.037707
   138    0.065301   -0.100778   -0.085147
   139   -0.032853   -0.046624   -0.042681
   140    0.006139   -0.013190    0.001431
   141    0.326694    0.013595    0.241313
   142    0.012354   -0.027886    0.002703
   143   -0.024923   -0.047017   -0.026051
   144   -0.030077   -0.049247   -0.018709
   145    0.011425   -0.060574   -0.003371
   146    0.006077   -0.072157    0.020492
   147    0.624131   -0.350227   -0.495219
   148    0.009788   -0.047290    0.052283
   149    0.016628   -0.009891   -0.000424
   150   -0.002790   -0.003230    0.005909
   151    0.261302    0.931018    0.493504
   152   -0.019884    0.012117   -0.018967
   153    0.376093    0.034803    0.235510
   154    0.003354   -0.060118   -0.008563
   155   -0.008093   -0.128125   -0.038597
   156   -0.051509   -0.064873   -0.017453
   157    0.021799    0.883978    0.647584
   158   -0.492821    1.269606   -0.723068
   159    0.674355   -0.381918   -0.482762
   160   -0.004537   -0.073659    0.079970
   161    0.053608   -0.041232    0.021922
   162   -0.002209    0.032384    0.004522
   163   -0.001285   -0.005843    0.008307
   164    0.001463   -0.003571    0.007577
   165    0.007334    0.012842   -0.006074
   166   -0.185565    0.033726   -0.148986
   167   -0.002625   -0.009121    0.002713
   168    0.000817   -0.008647    0.001782
   169    0.008582    0.001701    0.006280
   170    0.001120    0.011530    0.003872
   171   -0.007740   -0.010343    0.002323
   172    0.000139   -0.001225   -0.017410
   173    0.021746    0.000249    0.008876
   174   -0.006323    0.004778   -0.002118
   175    0.003598   -0.007354    0.006820
   176    0.000444   -0.003809    0.005065
   177    0.003701   -0.007762   -0.008890
   178   -0.017510   -0.005485   -0.009645
   179    0.000630   -0.003470    0.003332
   180   -0.002345   -0.007541    0.004105
   181    0.008193    0.003530    0.002738
   182   -0.006680   -0.003572   -0.006819
   183   -0.000524   -0.009210   -0.000239
   184   -0.000023   -0.005057   -0.012060
   185    0.011970    0.011920   -0.004088
   186    0.003287    0.004049   -0.005242
   187    0.003385   -0.003131    0.004892
   188    0.006564   -0.008340    0.003374
   189   -0.003624   -0.001327   -0.003532
   190   -0.034224   -0.040964    0.016856
   191    0.004624   -0.005748    0.001446
   192   -0.000082   -0.006780   -0.001088
   193    0.005865    0.003478    0.006050
   194   -0.026079   -0.018337    0.013426
   195    0.001191   -0.008024   -0.002121
   196    0.002626   -0.011677   -0.004226
   197    0.018526    0.010898   -0.004182
   198   -0.034701   -0.012502   -0.004847
   199   -0.033485   -0.099573   -0.039899
   200   -0.025283   -0.001968   -0.003728
   201    0.024931   -0.040036    0.022900
   202    0.007894   -0.013847    0.016393
   203    0.013744    0.031966   -0.003029
   204    0.005734   -0.001249    0.000324
   205    0.059709   -0.012067   -0.022851
   206    0.004507   -0.006960   -0.009988
   207    0.018288    0.001705   -0.002473
   208   -0.020406   -0.019354   -0.024900
   209   -0.000924   -0.000577   -0.009038
   210   -0.005390    0.010200    0.026067
   211   -0.093699    0.375580    0.059738
   212   -0.007113    0.008189   -0.032214
   213   -0.050431   -0.137235   -0.060339
----------------------------------------
   Tot    0.211280   -0.217952   -0.376362
----------------------------------------
   Max    1.417383
   Res    0.256525    sqrt( Sum f_i^2 / 3N )
----------------------------------------
   Max    1.269606    constrained

Stress-tensor-Voigt (kbar):        1.33        2.92        1.63       -0.44       -0.34       -0.17
Target enthalpy (eV/cell)   -55861.5113

siesta: Stress tensor (static) (eV/Ang**3):
         0.000833   -0.000272   -0.000104
        -0.000272    0.001821   -0.000215
        -0.000104   -0.000215    0.001017

siesta: Pressure (static):         -1.96033365  kBar

siesta: Stress tensor (total) (eV/Ang**3):
         0.000833   -0.000272   -0.000104
        -0.000272    0.001821   -0.000215
        -0.000104   -0.000215    0.001017

siesta: Pressure (total):         -1.96033365  kBar
 
mulliken: Atomic and Orbital Populations:

Species: H                   
Atom  Qatom  Qorb
               1s      1s      1Ppy    1Ppz    1Ppx    
 163  1.111   0.631   0.447   0.002   0.006   0.024
 164  1.124   0.676   0.417   0.001   0.014   0.016
 165  1.123   0.403   0.482   0.071   0.091   0.076
 166  1.178   0.466   0.379   0.112   0.082   0.139
 167  1.112   0.632   0.447   0.002   0.006   0.025
 168  1.126   0.683   0.413   0.001   0.015   0.015
 169  1.123   0.406   0.480   0.070   0.090   0.077
 170  1.167   0.442   0.437   0.144   0.075   0.070
 171  1.113   0.635   0.445   0.002   0.006   0.025
 172  1.127   0.685   0.412   0.001   0.015   0.015
 173  1.111   0.402   0.473   0.068   0.090   0.077
 174  1.109   0.414   0.461   0.075   0.058   0.101
 175  1.110   0.621   0.456   0.001   0.006   0.025
 176  1.124   0.674   0.419   0.001   0.014   0.016
 177  1.132   0.382   0.493   0.071   0.094   0.091
 178  1.129   0.432   0.456   0.072   0.061   0.108
 179  1.110   0.623   0.454   0.002   0.006   0.025
 180  1.126   0.684   0.412   0.001   0.015   0.015
 181  1.130   0.375   0.495   0.068   0.090   0.103
 182  1.139   0.427   0.463   0.078   0.058   0.113
 183  1.112   0.631   0.449   0.002   0.006   0.024
 184  1.127   0.687   0.410   0.001   0.014   0.015
 185  1.110   0.381   0.494   0.068   0.086   0.082
 186  1.199   0.464   0.417   0.102   0.073   0.143
 187  1.109   0.617   0.459   0.002   0.006   0.025
 188  1.126   0.685   0.411   0.001   0.015   0.015
 189  1.122   0.402   0.476   0.070   0.092   0.082
 190  1.133   0.431   0.455   0.077   0.060   0.111
 191  1.110   0.618   0.458   0.002   0.006   0.026
 192  1.127   0.690   0.408   0.001   0.015   0.014
 193  1.095   0.374   0.484   0.066   0.088   0.083
 194  1.130   0.434   0.453   0.075   0.057   0.111
 195  1.111   0.627   0.452   0.003   0.005   0.025
 196  1.130   0.696   0.404   0.001   0.015   0.013
 197  1.140   0.393   0.489   0.071   0.096   0.091
 198  1.141   0.443   0.451   0.076   0.058   0.113
 200  1.180   0.430   0.454   0.107   0.091   0.099
 201  1.130   0.450   0.451   0.071   0.103   0.056
 203  1.151   0.381   0.507   0.099   0.100   0.064
 204  1.119   0.411   0.477   0.056   0.068   0.107
 206  1.169   0.414   0.484   0.084   0.106   0.080
 207  1.128   0.399   0.491   0.077   0.087   0.075
 209  1.161   0.400   0.489   0.120   0.059   0.093
 210  1.125   0.439   0.456   0.066   0.067   0.097
 212  1.135   0.416   0.483   0.064   0.088   0.085
 213  1.140   0.445   0.418   0.137   0.077   0.063

Species: O                   
Atom  Qatom  Qorb
               2s      2s      2py     2pz     2px     2py     2pz     2px     
               2Pdxy   2Pdyz   2Pdz2   2Pdxz   2Pdx2-y2
  55  6.066   1.239   0.317   1.120   1.313   1.547   0.279   0.186   0.053
              0.004   0.002   0.002   0.003   0.003
  56  6.097   1.251   0.316   1.171   1.336   1.568   0.244   0.167   0.028
              0.005   0.002   0.002   0.004   0.004
  57  6.037   1.207   0.337   1.535   1.284   1.102   0.060   0.203   0.294
              0.004   0.003   0.002   0.003   0.003
  58  6.064   1.229   0.328   1.551   1.309   1.131   0.043   0.184   0.274
              0.005   0.004   0.002   0.003   0.003
  59  6.055   1.219   0.333   1.120   1.299   1.550   0.276   0.198   0.045
              0.005   0.003   0.002   0.004   0.003
  60  6.061   1.223   0.329   1.551   1.308   1.130   0.046   0.186   0.272
              0.004   0.003   0.002   0.003   0.003
  61  6.016   1.197   0.338   1.063   1.290   1.521   0.315   0.205   0.075
              0.003   0.003   0.002   0.002   0.003
  62  6.024   1.201   0.338   1.070   1.284   1.531   0.313   0.204   0.068
              0.004   0.003   0.002   0.003   0.003
  63  6.036   1.205   0.338   1.530   1.280   1.106   0.065   0.202   0.295
              0.004   0.003   0.002   0.003   0.003
  64  6.116   1.280   0.296   1.224   1.365   1.519   0.211   0.155   0.050
              0.004   0.003   0.002   0.003   0.003
  65  5.867   1.000   0.458   1.281   1.266   1.141   0.219   0.194   0.293
              0.002   0.003   0.006   0.004   0.000
  66  5.857   1.009   0.454   1.405   1.256   1.014   0.167   0.213   0.322
              0.002   0.003   0.004   0.006   0.002
  67  6.066   1.240   0.317   1.120   1.314   1.547   0.277   0.186   0.052
              0.004   0.002   0.002   0.003   0.003
  68  6.094   1.250   0.316   1.170   1.335   1.563   0.246   0.166   0.031
              0.005   0.002   0.002   0.004   0.004
  69  6.045   1.208   0.337   1.541   1.299   1.102   0.057   0.195   0.291
              0.004   0.003   0.002   0.003   0.003
  70  6.059   1.222   0.330   1.548   1.306   1.126   0.047   0.188   0.276
              0.004   0.003   0.002   0.003   0.003
  71  6.063   1.222   0.332   1.128   1.309   1.550   0.273   0.192   0.040
              0.005   0.002   0.002   0.004   0.004
  72  6.063   1.224   0.329   1.547   1.314   1.127   0.044   0.186   0.276
              0.005   0.004   0.002   0.002   0.004
  73  6.021   1.197   0.338   1.099   1.275   1.522   0.296   0.207   0.074
              0.003   0.003   0.001   0.002   0.003
  74  6.027   1.202   0.338   1.061   1.299   1.533   0.318   0.197   0.065
              0.004   0.003   0.002   0.003   0.003
  75  6.031   1.204   0.337   1.530   1.289   1.083   0.069   0.201   0.304
              0.004   0.003   0.002   0.003   0.003
  76  6.121   1.279   0.296   1.240   1.360   1.519   0.209   0.152   0.050
              0.004   0.003   0.002   0.003   0.003
  77  5.892   0.974   0.484   1.306   1.053   1.458   0.177   0.301   0.120
              0.003   0.006   0.003   0.003   0.005
  78  5.866   1.008   0.456   1.412   1.285   1.013   0.162   0.195   0.320
              0.002   0.003   0.004   0.006   0.002
  79  6.072   1.250   0.310   1.117   1.334   1.560   0.268   0.172   0.049
              0.004   0.002   0.002   0.002   0.003
  80  6.095   1.250   0.316   1.171   1.335   1.566   0.244   0.167   0.030
              0.005   0.002   0.002   0.004   0.004
  81  6.045   1.208   0.337   1.541   1.299   1.101   0.056   0.195   0.293
              0.004   0.003   0.002   0.003   0.003
  82  6.057   1.221   0.330   1.546   1.303   1.123   0.049   0.191   0.278
              0.004   0.003   0.002   0.003   0.003
  83  6.056   1.219   0.333   1.119   1.304   1.548   0.280   0.194   0.044
              0.005   0.002   0.002   0.004   0.004
  84  6.062   1.224   0.328   1.551   1.298   1.136   0.047   0.190   0.271
              0.004   0.003   0.002   0.003   0.003
  85  6.021   1.201   0.336   1.083   1.306   1.517   0.293   0.195   0.079
              0.003   0.003   0.002   0.002   0.002
  86  6.057   1.228   0.327   1.107   1.341   1.553   0.273   0.166   0.048
              0.004   0.003   0.002   0.003   0.003
  87  6.030   1.204   0.337   1.527   1.278   1.093   0.072   0.204   0.301
              0.004   0.003   0.002   0.003   0.003
  88  6.110   1.273   0.299   1.207   1.367   1.518   0.226   0.156   0.050
              0.004   0.002   0.002   0.003   0.003
  89  5.880   1.031   0.443   1.457   1.457   0.805   0.138   0.112   0.421
              0.003   0.004   0.005   0.004   0.002
  90  5.861   1.001   0.462   1.389   1.330   0.978   0.173   0.173   0.339
              0.002   0.003   0.003   0.006   0.002
  91  6.063   1.239   0.316   1.116   1.308   1.544   0.281   0.189   0.055
              0.004   0.002   0.002   0.003   0.003
  92  6.090   1.250   0.316   1.163   1.326   1.567   0.249   0.173   0.032
              0.005   0.002   0.002   0.004   0.003
  93  6.038   1.209   0.336   1.538   1.306   1.080   0.058   0.193   0.302
              0.004   0.003   0.002   0.003   0.003
  94  6.064   1.227   0.328   1.549   1.305   1.132   0.045   0.186   0.276
              0.005   0.004   0.002   0.003   0.003
  95  6.062   1.222   0.332   1.126   1.307   1.551   0.273   0.193   0.041
              0.005   0.002   0.002   0.004   0.004
  96  6.070   1.228   0.326   1.559   1.333   1.123   0.041   0.172   0.272
              0.005   0.003   0.002   0.002   0.003
  97  6.015   1.193   0.341   1.017   1.348   1.514   0.328   0.182   0.080
              0.004   0.003   0.002   0.002   0.003
  98  6.015   1.196   0.340   1.061   1.273   1.527   0.320   0.213   0.072
              0.003   0.003   0.002   0.002   0.003
  99  6.032   1.202   0.339   1.535   1.294   1.078   0.063   0.198   0.307
              0.004   0.003   0.002   0.003   0.003
 100  6.118   1.281   0.296   1.226   1.382   1.515   0.205   0.145   0.053
              0.004   0.003   0.002   0.003   0.003
 101  5.896   1.019   0.453   1.582   1.466   0.743   0.079   0.082   0.452
              0.000   0.004   0.007   0.004   0.004
 102  5.832   0.977   0.471   1.488   1.319   0.813   0.127   0.189   0.429
              0.002   0.003   0.004   0.007   0.002
 103  6.064   1.238   0.317   1.115   1.313   1.546   0.281   0.187   0.053
              0.004   0.002   0.002   0.003   0.003
 104  6.094   1.251   0.315   1.172   1.334   1.562   0.245   0.167   0.033
              0.004   0.002   0.002   0.004   0.004
 105  6.047   1.208   0.337   1.543   1.304   1.103   0.055   0.192   0.290
              0.004   0.003   0.002   0.003   0.003
 106  6.056   1.220   0.330   1.549   1.312   1.111   0.050   0.187   0.282
[...]
         56.96  57.02  57.04  57.12  57.16  57.21  57.29  57.37  57.46  57.48
         57.56  57.61  57.69  57.74  57.81  57.98  58.01  58.05  58.07  58.18
         58.20  58.32  58.39  58.45  58.53  58.59  58.66  58.72  58.75  58.81
         58.94  59.00  59.07  59.19  59.25  59.28  59.33  59.40  59.48  59.52
         59.62  59.65  59.68  59.73  59.83  59.88  59.90  60.03  60.13  60.15
         60.26  60.29  60.32  60.43  60.49  60.61  60.65  60.76  60.84  60.87
         60.94  61.06  61.13  61.21  61.29  61.35  61.40  61.52  61.53  61.59
         61.69  61.87  61.95  62.03  62.10  62.19  62.24  62.35  62.37  62.53
         62.56  62.66  62.82  62.91  63.02  63.20  63.31  63.52  63.60  63.64
         63.84  63.92  64.10  64.12  64.42  64.44  64.59  64.68  64.75  64.89
         65.05  65.10  65.17  65.24  65.27  65.35  65.46  65.51  65.61  65.71
         65.73  65.82  65.86  65.93  65.98  66.05  66.12  66.26  66.27  66.38
         66.47  66.49  66.64  66.66  66.80  66.83  66.88  66.91  66.97  67.13
         67.27  67.31  67.41  67.60  67.66  67.67  67.81  67.89  67.92  68.10
         68.27  68.34  68.41  68.53  68.60  68.80  68.98  69.19  69.27  69.40
         69.45  69.58  69.73  69.82  69.96  70.11  70.28  70.40  70.45  70.57
         70.60  70.78  70.93  71.04  71.21  71.26  71.42  71.57  71.73  71.92
         72.08  72.14  72.24  72.33  72.43  72.48  72.57  72.85  72.94  73.01
         73.23  73.29  73.63  73.78  73.87  74.03  74.17  74.24  74.39  74.47
         74.51  74.64  74.80  74.84  74.96  75.06  75.19  75.33  75.39  75.60
         75.72  75.82  75.86  75.92  76.16  76.24  76.34  76.42  76.62  76.73
         76.80  76.95  77.16  77.27  77.29  77.45  77.46  77.67  77.82  77.84
         77.96  78.06  78.11  78.16  78.27  78.33  78.53  78.65  78.80  78.88
         79.01  79.04  79.25  79.35  79.51  79.67  79.68  80.02  80.07  80.22
         80.26  80.40  80.45  80.63  80.83  80.90  80.99  81.10  81.22  81.31
         81.43  81.49  81.83  81.87  81.94  82.23  82.50  82.75  82.80  82.85
         83.08  83.26  83.48  83.56  83.63  83.81  83.91  84.02  84.04  84.23
         84.31  84.50  84.54  84.67  84.71  84.98  85.08  85.15  85.32  85.37
         85.50  85.61  85.83  85.93  85.99  86.06  86.13  86.18  86.25  86.33
         86.47  86.55  86.60  86.64  86.70  86.79  86.90  86.96  86.98  87.01
         87.06  87.14  87.25  87.28  87.40  87.50  87.54  87.59  87.62  87.70
         87.94  88.00  88.03  88.15  88.19  88.29  88.43  88.55  88.68  88.80
         88.89  88.94  89.08  89.16  89.27  89.37  89.43  89.46  89.50  89.72
         89.79  89.84  89.99  90.16  90.21  90.24  90.40  90.51  90.62  90.73
         90.93  91.07  91.21  91.28  91.34  91.60  91.65  91.96  92.13  92.25
         92.39  92.48  94.23  94.37  95.03  95.13  95.27  96.06  96.69  97.38
         97.75  98.41  98.62  98.97  99.25  99.92 100.33 100.74 101.44 101.60
        102.01 102.09 102.48 103.36 103.68 103.94 104.40 104.69 104.82 105.38
        110.94
siesta: Fermi energy =      -5.042985 eV

siesta: Program's energy decomposition (eV):
siesta: Eions   =     82909.569792
siesta: Ena     =     11416.669397
siesta: Ekin    =     38235.486090
siesta: Enl     =     -9605.367121
siesta: DEna    =       219.856199
siesta: DUscf   =        62.928880
siesta: DUext   =         0.000000
siesta: Exc     =    -13281.885400
siesta: eta*DQ  =         0.000000
siesta: Emadel  =         0.000000
siesta: Ekinion =         0.000000
siesta: Eharris =    -55861.881595
siesta: Etot    =    -55861.881748
siesta: FreeEng =    -55861.881748

siesta: Final energy (eV):
siesta:       Kinetic =   38235.486090
siesta:       Hartree =  618431.243608
siesta:    Ext. field =       0.000000
siesta:   Exch.-corr. =  -13281.885400
siesta:  Ion-electron =-1270826.878710
siesta:       Ion-ion =  571580.152664
siesta:       Ekinion =       0.000000
siesta:         Total =  -55861.881748

siesta: Atomic forces (eV/Ang):
siesta:      1   -0.062409   -0.169004   -0.324818
siesta:      2    0.006971    0.017871    0.034328
siesta:      3   -0.000592    0.008979    0.002148
siesta:      4    0.033654   -0.021317   -0.010011
siesta:      5    0.018464   -0.001744    0.016501
siesta:      6    0.003343   -0.022186   -0.028324
siesta:      7   -0.060669   -0.056098   -0.184232
siesta:      8    0.143354    0.012177    0.072426
siesta:      9   -0.522575    0.117601   -0.427081
siesta:     10   -0.377017    0.012495    0.286578
siesta:     11    0.150530   -0.063714    0.034477
siesta:     12   -0.188750    0.069784   -0.080049
siesta:     13   -0.111286    0.240090    0.029366
siesta:     14    0.013256    0.053304    0.131311
siesta:     15   -0.368707    0.151906   -0.357684
siesta:     16   -0.323466    0.446519   -0.020355
siesta:     17   -0.187936    0.456590   -0.097829
siesta:     18    0.064840   -0.064697   -0.098933
siesta:     19   -0.005208   -0.160885   -0.160652
siesta:     20    0.258213   -0.459289   -0.320628
siesta:     21   -0.199433   -0.560096    0.334025
siesta:     22    0.422388   -0.147061    0.177047
siesta:     23   -0.250628    0.093147   -0.149548
siesta:     24   -0.052089   -0.159731   -0.531583
siesta:     25   -0.002907   -0.137369   -0.124403
siesta:     26   -0.018821    0.048787    0.068934
siesta:     27    0.038742    0.037437   -0.050088
siesta:     28   -0.017562    0.106757    0.207403
siesta:     29    0.044913    0.038470   -0.182242
siesta:     30   -0.115023   -0.425300    0.569951
siesta:     31   -0.098217    0.372291    0.193687
siesta:     32   -0.055230    0.103806    0.100905
siesta:     33    0.062347   -0.123294   -0.134038
siesta:     34    0.067105    0.594898   -0.283052
siesta:     35   -0.003144    0.616110    0.354763
siesta:     36   -0.055506   -0.316265    0.458739
siesta:     37   -0.011272   -0.021095   -0.159650
siesta:     38    0.508124   -0.578930   -0.146878
siesta:     39   -0.107694   -0.638584    0.344570
siesta:     40   -0.017355    0.086584    0.118117
siesta:     41    0.090558   -0.026034   -0.348189
siesta:     42    0.194484   -0.398544   -0.162770
siesta:     43   -0.029874   -0.052452   -0.203360
siesta:     44    0.232595   -0.134541    0.340493
siesta:     45    0.023200    0.056106   -0.095692
siesta:     46   -0.003682   -0.046567    0.106428
siesta:     47    0.401482   -0.259908   -0.337546
siesta:     48    0.289382    0.300912   -0.071812
siesta:     49   -0.074802    0.397726    0.096539
siesta:     50    0.343917    0.014087    0.345324
siesta:     51    0.075631   -0.138430   -0.123854
siesta:     52   -0.048249    0.651577   -0.363640
siesta:     53    0.753555    0.092696    0.479612
siesta:     54   -0.216775    0.608447   -0.237508
siesta:     55   -0.183277    0.197390    0.091506
siesta:     56    0.058931   -0.327408    0.090484
siesta:     57    0.146323   -0.156123   -0.024196
siesta:     58   -0.193091   -0.290927   -0.019309
siesta:     59   -0.067689   -0.009372    0.127009
siesta:     60   -0.127590   -0.055197    0.031972
siesta:     61    0.120723   -0.137840    0.076761
siesta:     62    0.020601   -0.214743    0.178729
siesta:     63   -0.132782    0.055203    0.164831
siesta:     64   -0.014210   -0.007348   -0.011289
siesta:     65    0.002741   -0.001137    0.009496
siesta:     66    0.004121   -0.004626    0.000307
siesta:     67    0.001826    0.002781    0.005121
siesta:     68    0.005487    0.005260   -0.000036
siesta:     69   -0.003211   -0.000278   -0.002891
siesta:     70   -0.001246    0.003429    0.000194
siesta:     71   -0.014319    0.005941   -0.001492
siesta:     72   -0.016730   -0.005840   -0.008490
siesta:     73   -0.013727   -0.007032   -0.007795
siesta:     74   -0.003046   -0.002419    0.001365
siesta:     75    0.005823    0.001400    0.003030
siesta:     76    0.004489    0.004103    0.006398
siesta:     77    0.000495   -0.013433    0.002515
siesta:     78    0.005606    0.007596   -0.004721
siesta:     79   -0.013868   -0.000295   -0.017387
siesta:     80   -0.000876   -0.002336   -0.001920
siesta:     81   -0.000302    0.008935    0.000239
siesta:     82    0.010903   -0.000166   -0.007611
siesta:     83   -0.000181   -0.009106    0.005775
siesta:     84   -0.012786   -0.002739    0.009633
siesta:     85    0.014198    0.009962    0.022622
siesta:     86   -0.018627    0.020582    0.005744
siesta:     87   -0.006632   -0.004625    0.009593
siesta:     88    0.010994    0.004471   -0.010629
siesta:     89    0.004302   -0.006518    0.015238
siesta:     90   -0.013800   -0.005384    0.007572
siesta:     91   -0.007254    0.005883   -0.000019
siesta:     92   -0.005118    0.011718   -0.011658
siesta:     93    0.008289    0.005141    0.003165
siesta:     94    0.011100    0.005060   -0.008758
siesta:     95   -0.006980    0.003774    0.003178
siesta:     96   -0.000046   -0.004085    0.003566
siesta:     97   -0.012940    0.007324   -0.010537
siesta:     98   -0.001049   -0.000287   -0.009839
siesta:     99    0.009650    0.011407   -0.003568
siesta:    100    0.016185    0.001262   -0.006455
siesta:    101    0.004454   -0.004952   -0.002278
siesta:    102    0.002034    0.004797    0.018500
siesta:    103   -0.018465    0.000054   -0.003560
siesta:    104    0.002309    0.015480   -0.009243
siesta:    105   -0.001712   -0.004255   -0.003723
siesta:    106    0.001733    0.003150   -0.001224
siesta:    107   -0.006812    0.004003    0.001087
siesta:    108    0.004412   -0.009032    0.001258
siesta:    109   -0.009736    0.005048    0.002505
siesta:    110    0.011857    0.004307   -0.002823
siesta:    111    0.007652   -0.001232    0.001260
siesta:    112    0.005188    0.007701    0.004143
siesta:    113    0.007114   -0.019625   -0.002590
siesta:    114    0.014330   -0.001766    0.021542
siesta:    115    0.004930   -0.002316   -0.022486
siesta:    116    0.000186    0.007648   -0.008527
siesta:    117   -0.000784    0.001267    0.001617
siesta:    118    0.009510    0.004024    0.005844
siesta:    119   -0.001348   -0.017419   -0.006134
siesta:    120    0.011200    0.002870    0.011322
siesta:    121    0.004753   -0.019288   -0.012204
siesta:    122    0.008328    0.003616    0.002996
siesta:    123   -0.000162    0.001517   -0.003583
siesta:    124    0.004434    0.010454   -0.013170
siesta:    125    0.000766   -0.004878    0.006691
siesta:    126   -0.013153    0.001334   -0.000273
siesta:    127   -0.006600    0.005703    0.005474
siesta:    128   -0.000959    0.009137   -0.012171
siesta:    129   -0.002863    0.001058   -0.009683
siesta:    130    0.003320   -0.007731   -0.006441
siesta:    131   -0.009159   -0.001363    0.001025
siesta:    132    0.006883    0.005719    0.014836
siesta:    133    0.006589   -0.016120    0.003275
siesta:    134    0.007145    0.000270    0.001041
siesta:    135    0.029794    0.017139   -0.012976
siesta:    136    0.016861    0.002318    0.004788
siesta:    137    0.007452   -0.002912   -0.010490
siesta:    138   -0.021618    0.008595    0.005811
siesta:    139   -0.014398   -0.004266   -0.002074
siesta:    140    0.003300    0.009151   -0.007175
siesta:    141    0.002658   -0.001569   -0.001996
siesta:    142    0.002380    0.007876    0.000427
siesta:    143   -0.003532    0.006083    0.000588
siesta:    144   -0.011453    0.000320    0.009962
siesta:    145    0.003182    0.003338    0.016813
siesta:    146    0.005497    0.001247   -0.001982
siesta:    147    0.017919    0.012134   -0.004532
siesta:    148    0.011781    0.013528   -0.009933
siesta:    149   -0.007506   -0.005746    0.009742
siesta:    150   -0.007996    0.001019    0.001466
siesta:    151   -0.002505   -0.012948   -0.014654
siesta:    152    0.006589    0.007647   -0.008503
siesta:    153   -0.001459   -0.010754   -0.003614
siesta:    154   -0.004413    0.001179    0.001805
siesta:    155   -0.001360    0.001126    0.009087
siesta:    156   -0.006905    0.001786   -0.009805
siesta:    157   -0.011840    0.013893   -0.012476
siesta:    158    0.026361    0.000367    0.002413
siesta:    159    0.011010    0.005930   -0.008634
siesta:    160    0.011007   -0.010908   -0.010448
siesta:    161   -0.030298    0.019454   -0.000254
siesta:    162    0.009653    0.001588    0.025545
siesta:    163   -0.007200   -0.004620   -0.003158
siesta:    164    0.003177    0.000994   -0.002311
siesta:    165   -0.008207   -0.002208    0.007367
siesta:    166   -0.003476    0.000166   -0.005313
siesta:    167   -0.008042   -0.000259   -0.003203
siesta:    168    0.002403   -0.000695   -0.003083
siesta:    169    0.000287   -0.002852    0.004105
siesta:    170   -0.005715    0.004198    0.009498
siesta:    171   -0.004974   -0.003038   -0.004024
siesta:    172   -0.000037    0.003243   -0.003008
siesta:    173    0.003493    0.004436    0.015094
siesta:    174    0.007347   -0.006272    0.000033
siesta:    175   -0.001164   -0.005800   -0.000450
siesta:    176    0.004117   -0.004684   -0.004369
siesta:    177   -0.022548    0.002755   -0.008588
siesta:    178    0.002338   -0.001759    0.001280
siesta:    179   -0.006086   -0.002151   -0.002209
siesta:    180    0.000936   -0.002574   -0.003365
siesta:    181   -0.012068    0.005605   -0.001849
siesta:    182   -0.000521   -0.012644   -0.002324
siesta:    183   -0.003604   -0.007428    0.000958
siesta:    184   -0.003032    0.003709   -0.005890
siesta:    185    0.002254    0.008609    0.006748
siesta:    186    0.010387    0.003159    0.002228
siesta:    187   -0.004817   -0.006371   -0.002101
siesta:    188    0.002626   -0.004068   -0.003323
siesta:    189   -0.002808   -0.001734   -0.016491
siesta:    190   -0.004671    0.010663    0.012486
siesta:    191   -0.007425    0.002089   -0.002421
siesta:    192    0.003190   -0.001186   -0.003046
siesta:    193   -0.003514   -0.001707   -0.001883
siesta:    194    0.018483   -0.003670   -0.005909
siesta:    195   -0.004784   -0.009073   -0.000951
siesta:    196   -0.001862    0.003254   -0.003521
siesta:    197   -0.013929    0.005919   -0.000694
siesta:    198    0.032784   -0.010388   -0.007171
siesta:    199   -0.027261   -0.012534    0.002982
siesta:    200    0.012830    0.006775   -0.014199
siesta:    201    0.002685   -0.001115   -0.004797
siesta:    202   -0.026798   -0.015047   -0.007507
siesta:    203    0.002252   -0.005446    0.002594
siesta:    204    0.027023    0.013680    0.005801
siesta:    205   -0.002372   -0.008293    0.009394
siesta:    206   -0.005488    0.000815   -0.008335
siesta:    207    0.005621   -0.020935    0.006182
siesta:    208   -0.002682   -0.015361    0.024989
siesta:    209   -0.004001    0.001766   -0.006183
siesta:    210   -0.000349   -0.007253   -0.011669
siesta:    211   -0.009301   -0.036957   -0.023605
siesta:    212   -0.000604    0.004680   -0.002258
siesta:    213    0.007114    0.002997    0.006625
siesta: ----------------------------------------
siesta:    Tot    0.285120   -0.319440   -0.312971

siesta: Stress tensor (static) (eV/Ang**3):
siesta:    -0.000112   -0.000038   -0.000185
siesta:    -0.000038   -0.000125   -0.000494
siesta:    -0.000185   -0.000494   -0.000135

siesta: Constrained stress tensor (static) (eV/Ang**3):
siesta:    -0.000112   -0.000038    0.000000
siesta:    -0.000038   -0.000125    0.000000
siesta:     0.000000    0.000000    0.000000

siesta: Cell volume =       8605.157003 Ang**3

siesta: Pressure (static):
siesta:                Solid            Molecule  Units
siesta:           0.00000135         -0.00003104  Ry/Bohr**3
siesta:           0.00012389         -0.00284999  eV/Ang**3
siesta:           0.19849619         -4.56624427  kBar

siesta: Electric dipole (a.u.)  =    0.000000    0.000000   -3.429055
siesta: Electric dipole (Debye) =    0.000000    0.000000   -8.715794

* Maximum dynamic memory allocated : Node    0 =   340 MB
* Maximum dynamic memory allocated : Node    1 =   243 MB
* Maximum dynamic memory allocated : Node    2 =   156 MB
* Maximum dynamic memory allocated : Node    3 =   158 MB
* Maximum dynamic memory allocated : Node    4 =   339 MB
* Maximum dynamic memory allocated : Node    5 =   236 MB
* Maximum dynamic memory allocated : Node    6 =   154 MB
* Maximum dynamic memory allocated : Node    7 =   156 MB

* Maximum memory occured during redistribXZ                   

timer: CPU execution times:
timer:  Routine       Calls   Time/call    Tot.time        %
timer:  siesta            1   38219.225   38219.225   100.00
timer:  Setup             1       0.535       0.535     0.00
timer:  bands             1       0.001       0.001     0.00
timer:  writewave         1       0.001       0.001     0.00
timer:  KSV_init          1       0.001       0.001     0.00
timer:  IterMD           51     749.386   38218.667   100.00
timer:  hsparse          52      11.249     584.945     1.53
timer:  overfsm         102       1.247     127.229     0.33
timer:  IterSCF         355     105.768   37547.796    98.24
timer:  kinefsm         102       1.250     127.455     0.33
timer:  nlefsm          102       9.130     931.286     2.44
timer:  DHSCF           355      61.557   21852.883    57.18
timer:  DHSCF1           51       1.955      99.729     0.26
timer:  DHSCF2           51      39.927    2036.286     5.33
timer:  REORD          2942       0.030      88.379     0.23
timer:  POISON          406       6.825    2771.150     7.25
timer:  DHSCF3          355      49.515   17577.991    45.99
timer:  rhoofd          355      14.902    5290.107    13.84
timer:  cellXC          355      10.600    3762.893     9.85
timer:  vmat            355      16.334    5798.400    15.17
timer:  diagon          304      43.918   13350.998    34.93
timer:  rdiag           304      39.939   12141.420    31.77
timer:  rdiag1          304       1.515     460.662     1.21
timer:  rdiag2          304       5.806    1764.883     4.62
timer:  rdiag3          304      27.588    8386.690    21.94
timer:  rdiag4          304       3.968    1206.390     3.16
timer:  DHSCF4           51      41.665    2124.925     5.56
timer:  dfscf            51      38.796    1978.574     5.18
timer:  optical           1       0.001       0.001     0.00
  

elaps: ELAPSED times:
elaps:  Routine       Calls   Time/call    Tot.time        %
elaps:  siesta            1    9579.097    9579.097   100.00
elaps:  Setup             1       0.507       0.507     0.01
elaps:  bands             1       0.001       0.001     0.00
elaps:  writewave         1       0.001       0.001     0.00
elaps:  KSV_init          1       0.001       0.001     0.00
elaps:  IterMD           51     187.815    9578.565    99.99
elaps:  hsparse          52       1.440      74.889     0.78
elaps:  overfsm         102       0.160      16.312     0.17
elaps:  IterSCF         355      26.720    9485.756    99.03
elaps:  kinefsm         102       0.160      16.367     0.17
elaps:  nlefsm          102       1.149     117.197     1.22
elaps:  DHSCF           355      18.961    6731.234    70.27
elaps:  DHSCF1           51       0.241      12.290     0.13
elaps:  DHSCF2           51      11.702     596.794     6.23
elaps:  REORD          2942       0.004      10.939     0.11
elaps:  POISON          406       0.995     403.914     4.22
elaps:  DHSCF3          355      15.176    5387.519    56.24
elaps:  rhoofd          355       5.193    1843.468    19.24
elaps:  cellXC          355       3.238    1149.506    12.00
elaps:  vmat            355       5.623    1996.194    20.84
elaps:  diagon          304       7.812    2374.812    24.79
elaps:  rdiag           304       7.212    2192.308    22.89
elaps:  rdiag1          304       0.268      81.385     0.85
elaps:  rdiag2          304       1.300     395.220     4.13
elaps:  rdiag3          304       4.761    1447.228    15.11
elaps:  rdiag4          304       0.681     207.039     2.16
elaps:  DHSCF4           51      14.371     732.933     7.65
elaps:  dfscf            51      13.474     687.156     7.17
elaps:  optical           1       0.001       0.001     0.00
  
>> End of run:  27-SEP-2010  11:57:13
