
     Program PWSCF v.4.3.2      starts on 29Aug2011 at 17: 6:15 

     This program is part of the open-source Quantum ESPRESSO suite
     for quantum simulation of materials; please cite
         "P. Giannozzi et al., J. Phys.:Condens. Matter 21 395502 (2009);
          URL http://www.quantum-espresso.org", 
     in publications or presentations arising from this work. More details at
     http://www.quantum-espresso.org/wiki/index.php/Citing_Quantum-ESPRESSO

     Parallel version (MPI), running on     1 processors

     Current dimensions of program PWSCF are:
     Max number of different atomic species (ntypx) = 10
     Max number of k-points (npk) =  40000
     Max angular momentum in pseudopotentials (lmaxx) =  3
     Waiting for input...
     Reading input from stdin

     IMPORTANT: XC functional enforced from input :
     Exchange-correlation      = VDW-DF ( 1 4 4 0 1)
     EXX-fraction              =        0.00
     Any further DFT definition will be discarded
     Please, verify this is what you really want

               file S.rpb-paw_kj.UPF: wavefunction(s)  3P renormalized
               file O.rpb-paw_kj.UPF: wavefunction(s)  2P renormalized
               file H.rpb-paw_kj.UPF: wavefunction(s)  1S renormalized
               file C.rpb-paw_kj.UPF: wavefunction(s)  2P renormalized

     gamma-point specific algorithms are used

     Subspace diagonalization in iterative solution of the eigenvalue problem:
     a serial algorithm will be used

 
     G-vector sticks info
     --------------------
     sticks:   dense  smooth     PW     G-vecs:    dense   smooth      PW
     Sum        7907    3153    779               783093   198041   24709
     Tot        3954    1577    390
 


     bravais-lattice index     =           14
     lattice parameter (alat)  =      10.6649  a.u.
     unit-cell volume          =    4147.8944 (a.u.)^3
     number of atoms/cell      =           62
     number of atomic types    =            5
     number of electrons       =       236.00
     number of Kohn-Sham states=          142
     kinetic-energy cutoff     =      50.0000  Ry
     charge density cutoff     =     500.0000  Ry
     convergence threshold     =      1.0E-06
     mixing beta               =       0.7000
     number of iterations used =            8  plain     mixing
     Exchange-correlation      = VDW-DF ( 1 4 4 0 1)
     EXX-fraction              =        0.00
     nstep                     =          500


     celldm(1)=  10.664858  celldm(2)=   1.810369  celldm(3)=   2.258027
     celldm(4)=   0.499698  celldm(5)=   0.094647  celldm(6)=   0.256694

     crystal axes: (cart. coord. in units of alat)
               a(1) = (   1.000000   0.000000   0.000000 )  
               a(2) = (   0.464711   1.749709   0.000000 )  
               a(3) = (   0.213715   1.110687   1.954324 )  

     reciprocal axes: (cart. coord. in units 2 pi/alat)
               b(1) = (  1.000000 -0.265594  0.041588 )  
               b(2) = (  0.000000  0.571524 -0.324810 )  
               b(3) = (  0.000000  0.000000  0.511686 )  


     PseudoPot. # 1 for Na read from file:
     /gpfs/home/aasfu/espresso-4.3.1/pseudo/Na.rpb-paw_kj.UPF
     MD5 check sum: 9de12eab746618a655d8125ffec52c87
     Pseudo is Projector augmented-wave, Zval =  9.0
     Generated using "atomic" code by A. Dal Corso  (Quantum ESPRESSO distribution)
     Shape of augmentation charge: PSQ
     Using radial grid of 1121 points,  4 beta functions with: 
                l(1) =   0
                l(2) =   0
                l(3) =   1
                l(4) =   1
     Q(r) pseudized with 0 coefficients 


     PseudoPot. # 2 for  S read from file:
     /gpfs/home/aasfu/espresso-4.3.1/pseudo/S.rpb-paw_kj.UPF
     MD5 check sum: 5c8e0afabdfd000ad66aa37c1db9ada0
     Pseudo is Projector augmented-wave + core cor, Zval =  6.0
     Generated using "atomic" code by A. Dal Corso  (Quantum ESPRESSO distribution)
     Shape of augmentation charge: PSQ
     Using radial grid of 1151 points,  4 beta functions with: 
                l(1) =   0
                l(2) =   0
                l(3) =   1
                l(4) =   1
     Q(r) pseudized with 0 coefficients 


     PseudoPot. # 3 for  O read from file:
     /gpfs/home/aasfu/espresso-4.3.1/pseudo/O.rpb-paw_kj.UPF
     MD5 check sum: 5d8d2977d32af8c2a916e247784930dd
     Pseudo is Projector augmented-wave + core cor, Zval =  6.0
     Generated using "atomic" code by A. Dal Corso  (Quantum ESPRESSO distribution)
     Shape of augmentation charge: BESSEL
     Using radial grid of 1095 points,  4 beta functions with: 
                l(1) =   0
                l(2) =   0
                l(3) =   1
                l(4) =   1
     Q(r) pseudized with 0 coefficients 


     PseudoPot. # 4 for  H read from file:
     /gpfs/home/aasfu/espresso-4.3.1/pseudo/H.rpb-paw_kj.UPF
     MD5 check sum: 0658fb542d64c4760c4c84f387aebc81
     Pseudo is Projector augmented-wave, Zval =  1.0
     Generated using "atomic" code by A. Dal Corso  (Quantum ESPRESSO distribution)
     Shape of augmentation charge: PSQ
     Using radial grid of  929 points,  2 beta functions with: 
                l(1) =   0
                l(2) =   0
     Q(r) pseudized with 0 coefficients 


     PseudoPot. # 5 for  C read from file:
     /gpfs/home/aasfu/espresso-4.3.1/pseudo/C.rpb-paw_kj.UPF
     MD5 check sum: e3ca2f670da7df2ff427e485bf704357
     Pseudo is Projector augmented-wave + core cor, Zval =  4.0
     Generated using "atomic" code by A. Dal Corso  (Quantum ESPRESSO distribution)
     Shape of augmentation charge: BESSEL
     Using radial grid of 1073 points,  4 beta functions with: 
                l(1) =   0
                l(2) =   0
                l(3) =   1
                l(4) =   1
     Q(r) pseudized with 0 coefficients 


     vdW kernel table read from file vdW_kernel_table
     MD5 check sum: 2a73cc23e28154503cc02d2bc612f0de

     atomic species   valence    mass     pseudopotential
        Na             9.00    22.98977     Na( 1.00)
        S              6.00    32.06600      S( 1.00)
        O              6.00    15.99940      O( 1.00)
        H              1.00     1.00794      H( 1.00)
        C              4.00    12.01100      C( 1.00)

      2 Sym.Ops. (with inversion)

                                    s                        frac. trans.

      isym =  1     identity                                     

 cryst.   s( 1) = (     1          0          0      )    f =(  0.0000000 )
                  (     0          1          0      )       (  0.0000000 )
                  (     0          0          1      )       (  0.0000000 )

 cart.    s( 1) = (  1.0000000  0.0000000  0.0000000 )    f =(  0.0000000 )
                  (  0.0000000  1.0000000  0.0000000 )       (  0.0000000 )
                  (  0.0000000  0.0000000  1.0000000 )       (  0.0000000 )


      isym =  2     inversion                                    

 cryst.   s( 2) = (    -1          0          0      )    f =(  0.0000000 )
                  (     0         -1          0      )       (  0.0000000 )
                  (     0          0         -1      )       (  0.0000000 )

 cart.    s( 2) = ( -1.0000000  0.0000000  0.0000000 )    f =(  0.0000000 )
                  (  0.0000000 -1.0000000  0.0000000 )       (  0.0000000 )
                  (  0.0000000  0.0000000 -1.0000000 )       (  0.0000000 )


     point group C_i (-1)   
     there are  2 classes
     the character table:

       E     i    
A_g    1.00  1.00
A_u    1.00 -1.00

     the symmetry operations in each class:
     E        1
     i        2

   Cartesian axes

     site n.     atom                  positions (alat units)
         1           C   tau(   1) = (   0.6756645   2.3972482   1.4669165  )
         2           C   tau(   2) = (   1.0027624   0.4631476   0.4874087  )
         3           C   tau(   3) = (   0.7693299   2.4371483   1.2452956  )
         4           C   tau(   4) = (   0.9090970   0.4232476   0.7090297  )
         5           H   tau(   5) = (   0.9360444   2.3531026   1.1966316  )
         6           H   tau(   6) = (   0.7423825   0.5072932   0.7576937  )
         7           C   tau(   7) = (   0.1896219   0.8342016   1.0805461  )
         8           C   tau(   8) = (   1.4888050   2.0261943   0.8737791  )
         9           C   tau(   9) = (   0.9693830   0.9461390   1.1399568  )
        10           C   tau(  10) = (   0.7090439   1.9142569   0.8143667  )
        11           C   tau(  11) = (   0.8813399   0.9023265   1.3731076  )
        12           C   tau(  12) = (   0.7970870   1.9580693   0.5812159  )
        13           H   tau(  13) = (   0.7170494   0.9872971   1.4280991  )
        14           H   tau(  14) = (   0.9613775   1.8730987   0.5262262  )
        15           C   tau(  15) = (   1.4614041   2.5070292   1.5302360  )
        16           C   tau(  16) = (   0.2170228   0.3533666   0.4240892  )
        17           H   tau(  17) = (   1.3863775   2.4764920   1.7053760  )
        18           H   tau(  18) = (   0.2920494   0.3839039   0.2489475  )
        19           C   tau(  19) = (   0.3026154   0.8543820   0.8509125  )
        20           C   tau(  20) = (   1.3758115   2.0060157   1.1034109  )
        21           H   tau(  21) = (   0.4701343   0.7607626   0.8303122  )
        22           H   tau(  22) = (   1.2082908   2.0996332   1.1240113  )
        23           O   tau(  23) = (   0.8537512   1.0791676   0.9967060  )
        24           O   tau(  24) = (   0.8246757   1.7812283   0.9576193  )
        25           O   tau(  25) = (   0.2325838   0.9635640   0.6769775  )
        26           O   tau(  26) = (   1.4458431   1.8968318   1.2773460  )
        27           O   tau(  27) = (   0.6322914   2.1029148   1.8130271  )
        28           O   tau(  28) = (   1.0461354   0.7574810   0.1412981  )
        29           O   tau(  29) = (   0.9641505   2.0467538   1.5450882  )
        30           O   tau(  30) = (   0.7142763   0.8136420   0.4092352  )
        31           O   tau(  31) = (   0.9620047   2.3735258   1.8226026  )
        32           O   tau(  32) = (   0.7164221   0.4868701   0.1317209  )
        33           S   tau(  33) = (   0.8187008   2.2159774   1.6748565  )
        34           S   tau(  34) = (   0.8597261   0.6444202   0.2794688  )
        35           O   tau(  35) = (   1.0537901   1.2955312   0.2497626  )
        36           O   tau(  36) = (   0.6246368   1.5648646   1.7045609  )
        37           H   tau(  37) = (   0.9451432   1.2545928   0.1175969  )
        38           H   tau(  38) = (   0.7332837   1.6058030   1.8367283  )
        39           H   tau(  39) = (   1.1188071   1.4580002   0.2317847  )
        40           H   tau(  40) = (   0.5596197   1.4023956   1.7225388  )
        41           O   tau(  41) = (   0.5346357   1.3822046   0.4919041  )
        42           O   tau(  42) = (   1.1437912   1.4781912   1.4624211  )
        43           H   tau(  43) = (   0.5859770   1.5382982   0.4288840  )
        44           H   tau(  44) = (   1.0924499   1.3220976   1.5254394  )
        45           H   tau(  45) = (   0.4084007   1.4378553   0.6010968  )
        46           H   tau(  46) = (   1.2700262   1.4225406   1.3532267  )
        47           O   tau(  47) = (   1.1526419   1.4795202   0.7958006  )
        48           O   tau(  48) = (   0.5257850   1.3808757   1.1585229  )
        49           H   tau(  49) = (   1.2214473   1.4140850   0.9439223  )
        50           H   tau(  50) = (   0.4569796   1.4463126   1.0104012  )
        51           H   tau(  51) = (   1.0441456   1.6029609   0.8585389  )
        52           H   tau(  52) = (   0.6342813   1.2574350   1.0957864  )
        53           Na  tau(  53) = (   0.3654635   1.0092565   0.2759497  )
        54           Na  tau(  54) = (   1.3129634   1.8511393   1.6783737  )
        55           Na  tau(  55) = (   0.8761358   1.1658728   0.6056453  )
        56           Na  tau(  56) = (   0.8022911   1.6945230   1.3486799  )
        57           O   tau(  57) = (   1.2198951   1.7543589   0.1002569  )
        58           O   tau(  58) = (   0.4585318   1.1060387   1.8540683  )
        59           H   tau(  59) = (   1.3557144   1.7207952   0.2069371  )
        60           H   tau(  60) = (   0.3227125   1.1396006   1.7473864  )
        61           H   tau(  61) = (   0.7597083   0.1796548   0.1184315  )
        62           H   tau(  62) = (   0.9187185   2.6807410   1.8358920  )

   Crystallographic axes

     site n.     atom                  positions (cryst. coord.)
         1           C   tau(   1) = (  0.0999766  0.8936150  0.7506003  )
         2           C   tau(   2) = (  0.9000237  0.1063846  0.2494001  )
         3           C   tau(   3) = (  0.1738281  0.9884036  0.6372000  )
         4           C   tau(   4) = (  0.8261722  0.0115961  0.3628004  )
         5           H   tau(   5) = (  0.3608407  0.9561761  0.6122993  )
         6           H   tau(   6) = (  0.6391595  0.0438236  0.3877011  )
         7           C   tau(   7) = (  0.0130008  0.1257938  0.5529000  )
         8           C   tau(   8) = (  0.9869994  0.8742059  0.4471003  )
         9           C   tau(   9) = (  0.7655029  0.1704715  0.5832996  )
        10           C   tau(  10) = (  0.2344973  0.8295287  0.4166998  )
        11           C   tau(  11) = (  0.6987923  0.0697019  0.7025996  )
        12           C   tau(  12) = (  0.3012078  0.9302983  0.2973999  )
        13           H   tau(  13) = (  0.5142212  0.1004028  0.7307380  )
        14           H   tau(  14) = (  0.4857791  0.8995968  0.2692624  )
        15           C   tau(  15) = (  0.8591924  0.9357907  0.7830000  )
        16           C   tau(  16) = (  0.1408079  0.0642090  0.2170004  )
        17           H   tau(  17) = (  0.7995600  0.8614507  0.8726166  )
        18           H   tau(  18) = (  0.2004402  0.1385495  0.1273829  )
        19           C   tau(  19) = (  0.1110846  0.2119146  0.4353998  )
        20           C   tau(  20) = (  0.8889151  0.7880866  0.5645997  )
        21           H   tau(  21) = (  0.3026115  0.1651002  0.4248589  )
        22           H   tau(  22) = (  0.6973869  0.8349001  0.5751406  )
        23           O   tau(  23) = (  0.6085820  0.2930298  0.5100003  )
        24           O   tau(  24) = (  0.3914182  0.7069699  0.4900001  )
        25           O   tau(  25) = (  0.0048214  0.3308106  0.3463997  )
        26           O   tau(  26) = (  0.9951788  0.6691896  0.6535998  )
        27           O   tau(  27) = (  0.1491706  0.6129763  0.9277002  )
        28           O   tau(  28) = (  0.8508296  0.3870233  0.0723002  )
        29           O   tau(  29) = (  0.4848027  0.6679082  0.7905996  )
        30           O   tau(  30) = (  0.5151975  0.3320920  0.2093998  )
        31           O   tau(  31) = (  0.4074096  0.7645267  0.9325998  )
        32           O   tau(  32) = (  0.5925906  0.2354735  0.0673997  )
        33           S   tau(  33) = (  0.2998051  0.7224735  0.8570002  )
        34           S   tau(  34) = (  0.7001947  0.2775272  0.1430002  )
        35           O   tau(  35) = (  0.7200924  0.6593015  0.1277999  )
        36           O   tau(  36) = (  0.2799077  0.3406988  0.8721995  )
        37           H   tau(  37) = (  0.6168220  0.6788329  0.0601727  )
        38           H   tau(  38) = (  0.3831783  0.3211667  0.9398277  )
        39           H   tau(  39) = (  0.7412111  0.7579957  0.1186009  )
        40           H   tau(  40) = (  0.2587891  0.2420045  0.8813986  )
        41           O   tau(  41) = (  0.1879882  0.6301874  0.2517003  )
        42           O   tau(  42) = (  0.8120120  0.3698123  0.7483001  )
        43           H   tau(  43) = (  0.1952513  0.7398681  0.2194539  )
        44           H   tau(  44) = (  0.8047489  0.2601321  0.7805456  )
        45           H   tau(  45) = (  0.0515139  0.6265261  0.3075727  )
        46           H   tau(  46) = (  0.9484863  0.3734741  0.6924268  )
        47           O   tau(  47) = (  0.7927865  0.5870969  0.4071998  )
        48           O   tau(  48) = (  0.2072137  0.4129033  0.5927997  )
        49           H   tau(  49) = (  0.8851311  0.5015877  0.4829916  )
        50           H   tau(  50) = (  0.1148686  0.4984136  0.5170079  )
        51           H   tau(  51) = (  0.6541142  0.6372681  0.4393021  )
        52           H   tau(  52) = (  0.3458860  0.3627315  0.5606983  )
        53           Na  tau(  53) = (  0.1088876  0.4871828  0.1411996  )
        54           Na  tau(  54) = (  0.8911125  0.5128174  0.8587999  )
        55           Na  tau(  55) = (  0.5916749  0.4696043  0.3099001  )
        56           Na  tau(  56) = (  0.4083253  0.5303953  0.6901003  )
        57           O   tau(  57) = (  0.7581181  0.9700933  0.0513000  )
        58           O   tau(  58) = (  0.2418817  0.0299074  0.9487003  )
        59           H   tau(  59) = (  0.9072883  0.9162601  0.1058867  )
        60           H   tau(  60) = (  0.0927118  0.0837401  0.8941127  )
        61           H   tau(  61) = (  0.7169185  0.0642093  0.0605997  )
        62           H   tau(  62) = (  0.2830817  0.9357910  0.9393998  )

     number of k points=     1  gaussian smearing, width (Ry)=  0.0500
                       cart. coord. in units 2pi/alat
        k(    1) = (   0.0000000   0.0000000   0.0000000), wk =   2.0000000

                       cryst. coord.
        k(    1) = (   0.0000000   0.0000000   0.0000000), wk =   2.0000000

     Dense  grid:   391547 G-vectors     FFT dimensions: (  80, 140, 176)

     Smooth grid:    99021 G-vectors     FFT dimensions: (  56,  88, 110)

     Largest allocated arrays     est. size (Mb)     dimensions
        Kohn-Sham Wavefunctions        26.77 Mb     (  12355,  142)
        NL pseudopotentials            66.36 Mb     (  12355,  352)
        Each V/rho on FFT grid         30.08 Mb     (1971200)
        Each G-vector array             2.99 Mb     ( 391547)
        G-vector shells                 2.99 Mb     ( 391547)
     Largest temporary arrays     est. size (Mb)     dimensions
        Auxiliary wavefunctions        53.54 Mb     (  12355,  568)
        Each subspace H/S matrix        2.46 Mb     ( 568, 568)
        Each <psi_i|beta_j> matrix      0.38 Mb     (    352,  142)
        Arrays for rho mixing         240.62 Mb     (1971200,   8)

     Check: negative/imaginary core charge=   -0.000001    0.000000

     Initial potential from superposition of free atoms

     starting charge  233.15346, renormalised to  236.00000


---------------------------------------------------------------------------------
Carrying out vdW-DF run using the following parameters:

Nqs =      20    Nr_points =    1024   r_max =   100.000
q_mesh =       0.00001000
     0.04494208
     0.09755937
     0.15916263
     0.23128650
     0.31572767
     0.41458969
     0.53033537
     0.66584808
     0.82450364
     1.01025438
     1.22772762
     1.48234092
     1.78043706
     2.12944203
     2.53805004
     3.01644009
     3.57652955
     4.23227104
     5.00000000

Gradients computed in Reciprocal space

---------------------------------------------------------------------------------




     ----------------------------------------------------------------

     Non-local correlation energy =              2.690383167289223

     ----------------------------------------------------------------

     Starting wfc are  192 atomic wfcs
     Checking if some PAW data can be deallocated... 

     total cpu time spent up to now is       95.6 secs

     per-process dynamical memory:   485.6 Mb

     Self-consistent Calculation

     iteration #  1     ecut=    50.00 Ry     beta=0.70
     Davidson diagonalization with overlap
     ethr =  1.00E-02,  avg # of iterations =  5.0


     ----------------------------------------------------------------

     Non-local correlation energy =              3.915161653267033

     ----------------------------------------------------------------


     total cpu time spent up to now is      144.1 secs

     total energy              =   -1588.13595229 Ry
     Harris-Foulkes estimate   =   -1649.72756996 Ry
     estimated scf accuracy    <      81.64797699 Ry

     iteration #  2     ecut=    50.00 Ry     beta=0.70
     Davidson diagonalization with overlap
     ethr =  1.00E-02,  avg # of iterations =  4.0


     ----------------------------------------------------------------

     Non-local correlation energy =              3.621646087392501

     ----------------------------------------------------------------


     total cpu time spent up to now is      191.3 secs

     total energy              =   -1597.68479607 Ry
     Harris-Foulkes estimate   =   -1632.72062871 Ry
     estimated scf accuracy    <      66.72304954 Ry

     iteration #  3     ecut=    50.00 Ry     beta=0.70
     Davidson diagonalization with overlap
     ethr =  1.00E-02,  avg # of iterations =  4.0


     ----------------------------------------------------------------

     Non-local correlation energy =              3.654320878296697

     ----------------------------------------------------------------


     total cpu time spent up to now is      238.1 secs

     total energy              =   -1613.66412369 Ry
     Harris-Foulkes estimate   =   -1621.68216639 Ry
     estimated scf accuracy    <      20.46502638 Ry

     iteration #  4     ecut=    50.00 Ry     beta=0.70
     Davidson diagonalization with overlap
     ethr =  8.67E-03,  avg # of iterations =  5.0


     ----------------------------------------------------------------

     Non-local correlation energy =              3.713568051779784

     ----------------------------------------------------------------


     total cpu time spent up to now is      280.1 secs

     total energy              =   -1616.21266296 Ry
     Harris-Foulkes estimate   =   -1616.94812451 Ry
     estimated scf accuracy    <       2.14818898 Ry

     iteration #  5     ecut=    50.00 Ry     beta=0.70
     Davidson diagonalization with overlap
     ethr =  9.10E-04,  avg # of iterations =  6.0


     ----------------------------------------------------------------

     Non-local correlation energy =              3.757113695426012

     ----------------------------------------------------------------


     total cpu time spent up to now is      327.6 secs

     total energy              =   -1617.34146285 Ry
     Harris-Foulkes estimate   =   -1617.68197024 Ry
     estimated scf accuracy    <       0.94773789 Ry

     iteration #  6     ecut=    50.00 Ry     beta=0.70
     Davidson diagonalization with overlap
     ethr =  4.02E-04,  avg # of iterations = 11.0


     ----------------------------------------------------------------

     Non-local correlation energy =              3.807529748786266

     ----------------------------------------------------------------


     total cpu time spent up to now is      371.1 secs

     total energy              =   -1617.31769151 Ry
     Harris-Foulkes estimate   =   -1617.42243342 Ry
     estimated scf accuracy    <       0.22413695 Ry

     iteration #  7     ecut=    50.00 Ry     beta=0.70
     Davidson diagonalization with overlap
     ethr =  9.50E-05,  avg # of iterations =  5.0


     ----------------------------------------------------------------

     Non-local correlation energy =              3.829413090630232

     ----------------------------------------------------------------


     total cpu time spent up to now is      418.5 secs

     total energy              =   -1617.43075407 Ry
     Harris-Foulkes estimate   =   -1617.45095385 Ry
     estimated scf accuracy    <       0.09069585 Ry

     iteration #  8     ecut=    50.00 Ry     beta=0.70
     Davidson diagonalization with overlap
     ethr =  3.84E-05,  avg # of iterations =  1.0


     ----------------------------------------------------------------

     Non-local correlation energy =              3.827534673743582

     ----------------------------------------------------------------


     total cpu time spent up to now is      461.2 secs

     total energy              =   -1617.42111030 Ry
     Harris-Foulkes estimate   =   -1617.43863306 Ry
     estimated scf accuracy    <       0.05712735 Ry

     iteration #  9     ecut=    50.00 Ry     beta=0.70
     Davidson diagonalization with overlap
     ethr =  2.42E-05,  avg # of iterations =  5.0


     ----------------------------------------------------------------

     Non-local correlation energy =              3.826958191752242

     ----------------------------------------------------------------


     total cpu time spent up to now is      505.3 secs

     total energy              =   -1617.42223495 Ry
     Harris-Foulkes estimate   =   -1617.42668931 Ry
     estimated scf accuracy    <       0.01447014 Ry

     iteration # 10     ecut=    50.00 Ry     beta=0.70
     Davidson diagonalization with overlap
     ethr =  6.13E-06,  avg # of iterations =  5.0


     ----------------------------------------------------------------

     Non-local correlation energy =              3.825767112907460

     ----------------------------------------------------------------


     total cpu time spent up to now is      552.1 secs

     total energy              =   -1617.42599112 Ry
     Harris-Foulkes estimate   =   -1617.42643318 Ry
     estimated scf accuracy    <       0.00106512 Ry

     iteration # 11     ecut=    50.00 Ry     beta=0.70
     Davidson diagonalization with overlap
     ethr =  4.51E-07,  avg # of iterations =  3.0


     ----------------------------------------------------------------

     Non-local correlation energy =              3.825509248265292

     ----------------------------------------------------------------


     total cpu time spent up to now is      596.4 secs

     total energy              =   -1617.42614331 Ry
     Harris-Foulkes estimate   =   -1617.42621429 Ry
     estimated scf accuracy    <       0.00015416 Ry

     iteration # 12     ecut=    50.00 Ry     beta=0.70
     Davidson diagonalization with overlap
     ethr =  6.53E-08,  avg # of iterations =  4.0


     ----------------------------------------------------------------

     Non-local correlation energy =              3.825651453255430

     ----------------------------------------------------------------


     total cpu time spent up to now is      643.0 secs

     total energy              =   -1617.42619702 Ry
     Harris-Foulkes estimate   =   -1617.42622350 Ry
     estimated scf accuracy    <       0.00006182 Ry

     iteration # 13     ecut=    50.00 Ry     beta=0.70
     Davidson diagonalization with overlap
     ethr =  2.62E-08,  avg # of iterations =  3.0


     ----------------------------------------------------------------

     Non-local correlation energy =              3.825718404825257

     ----------------------------------------------------------------


     total cpu time spent up to now is      686.9 secs

     total energy              =   -1617.42620771 Ry
     Harris-Foulkes estimate   =   -1617.42620998 Ry
     estimated scf accuracy    <       0.00000490 Ry

     iteration # 14     ecut=    50.00 Ry     beta=0.70
     Davidson diagonalization with overlap
     ethr =  2.08E-09,  avg # of iterations =  4.0


     ----------------------------------------------------------------

     Non-local correlation energy =              3.825740670955914

     ----------------------------------------------------------------


     total cpu time spent up to now is      734.4 secs

     total energy              =   -1617.42621064 Ry
     Harris-Foulkes estimate   =   -1617.42621115 Ry
     estimated scf accuracy    <       0.00000123 Ry

     iteration # 15     ecut=    50.00 Ry     beta=0.70
     Davidson diagonalization with overlap
     ethr =  5.22E-10,  avg # of iterations =  3.0


     ----------------------------------------------------------------

     Non-local correlation energy =              3.825730166421215

     ----------------------------------------------------------------


     total cpu time spent up to now is      775.3 secs

     End of self-consistent calculation

          k = 0.0000 0.0000 0.0000 ( 12355 PWs)   bands (ev):

   -48.7085 -48.7081 -48.4632 -48.4631 -22.0251 -22.0050 -20.6474 -20.6463
   -20.6255 -20.6245 -20.6160 -20.5997 -20.4157 -20.4154 -20.3931 -20.3921
   -20.3775 -20.3763 -19.4396 -19.4173 -19.1705 -19.0706 -18.8728 -18.6113
   -18.5845 -18.4260 -18.3331 -18.3162 -18.2954 -18.2818 -18.2614 -18.1968
   -18.0831 -17.9598 -14.8141 -14.7773 -12.5583 -12.4775 -11.9401 -11.9365
    -9.4052  -9.3334  -9.2753  -9.1846  -8.3397  -8.2673  -7.1140  -7.0340
    -6.9271  -6.5403  -6.4819  -6.4728  -6.3411  -6.3272  -6.1246  -5.8398
    -5.6247  -5.5578  -5.4329  -5.3379  -4.9994  -4.8971  -4.8401  -4.8036
    -4.6552  -4.5770  -4.5234  -4.3543  -4.0385  -4.0364  -3.9704  -3.7823
    -3.6993  -3.6933  -3.6003  -3.3201  -3.2193  -3.1060  -3.0954  -3.0419
    -2.7393  -2.6488  -2.6129  -2.4135  -2.3421  -2.3249  -2.2183  -2.1508
    -2.0070  -1.8868  -1.8178  -1.7518  -1.5737  -1.4802  -1.3028  -1.2817
    -1.0193  -0.9389  -0.9207  -0.7733  -0.7242  -0.6536  -0.6394  -0.6158
    -0.5310  -0.5135  -0.5103  -0.0614  -0.0328   0.1677   0.2516   0.3203
     0.3293   0.4540   1.1293   1.2361   1.4446   1.5698   4.2433   4.4977
     5.3124   5.5840   5.8626   6.3289   6.6187   6.6381   6.8651   7.4351
     8.0058   8.0222   8.3992   8.4984   8.6425   8.7097   8.7897   8.9018
     8.9431   9.1437   9.2456   9.2830   9.5896   9.7976

     occupation numbers 
     2.0000   2.0000   2.0000   2.0000   2.0000   2.0000   2.0000   2.0000
     2.0000   2.0000   2.0000   2.0000   2.0000   2.0000   2.0000   2.0000
     2.0000   2.0000   2.0000   2.0000   2.0000   2.0000   2.0000   2.0000
     2.0000   2.0000   2.0000   2.0000   2.0000   2.0000   2.0000   2.0000
     2.0000   2.0000   2.0000   2.0000   2.0000   2.0000   2.0000   2.0000
     2.0000   2.0000   2.0000   2.0000   2.0000   2.0000   2.0000   2.0000
     2.0000   2.0000   2.0000   2.0000   2.0000   2.0000   2.0000   2.0000
     2.0000   2.0000   2.0000   2.0000   2.0000   2.0000   2.0000   2.0000
     2.0000   2.0000   2.0000   2.0000   2.0000   2.0000   2.0000   2.0000
     2.0000   2.0000   2.0000   2.0000   2.0000   2.0000   2.0000   2.0000
     2.0000   2.0000   2.0000   2.0000   2.0000   2.0000   2.0000   2.0000
     2.0000   2.0000   2.0000   2.0000   2.0000   2.0000   2.0000   2.0000
     2.0000   2.0000   2.0000   2.0000   2.0000   2.0000   2.0000   2.0000
     2.0000   2.0000   2.0000   2.0000   2.0000   2.0000   2.0000   2.0000
     2.0000   2.0000   1.9998   1.9996   1.9980   1.9953   0.0063   0.0011
     0.0000   0.0000   0.0000   0.0000   0.0000   0.0000   0.0000   0.0000
     0.0000   0.0000   0.0000   0.0000   0.0000   0.0000   0.0000   0.0000
     0.0000   0.0000   0.0000   0.0000   0.0000   0.0000

     the Fermi energy is     2.9287 ev

!    total energy              =   -1617.42621076 Ry
     Harris-Foulkes estimate   =   -1617.42621087 Ry
     estimated scf accuracy    <       0.00000016 Ry

     total all-electron energy =     -6718.044374 Ry

     The total energy is the sum of the following terms:

     one-electron contribution =    -872.17591190 Ry
     hartree contribution      =     517.80245958 Ry
     xc contribution           =    -293.72712345 Ry
     ewald contribution        =    -576.69846612 Ry
     one-center paw contrib.   =    -392.62550928 Ry
     smearing contrib. (-TS)   =      -0.00165959 Ry

     convergence has been achieved in  15 iterations

     Forces acting on atoms (Ry/au):



     ----------------------------------------------------------------

     Non-local correlation energy =              3.825730166421215

     ----------------------------------------------------------------

     atom    1 type  5   force =    -0.00588040    0.00731232   -0.00803015
     atom    2 type  5   force =     0.00588040   -0.00731232    0.00803015
     atom    3 type  5   force =     0.02201858   -0.00434488    0.00243817
     atom    4 type  5   force =    -0.02201858    0.00434488   -0.00243817
     atom    5 type  4   force =    -0.00524699   -0.00092758   -0.00336261
     atom    6 type  4   force =     0.00524699    0.00092758    0.00336261
     atom    7 type  5   force =     0.01545682   -0.00138337   -0.01757138
     atom    8 type  5   force =    -0.01545682    0.00138337    0.01757138
     atom    9 type  5   force =    -0.00703492   -0.00099655    0.00586985
     atom   10 type  5   force =     0.00703492    0.00099655   -0.00586985
     atom   11 type  5   force =    -0.01624787    0.00853339    0.01296781
     atom   12 type  5   force =     0.01624787   -0.00853339   -0.01296781
     atom   13 type  4   force =     0.00161295    0.00101900   -0.00270453
     atom   14 type  4   force =    -0.00161295   -0.00101900    0.00270453
     atom   15 type  5   force =    -0.00065558   -0.00529107    0.01907540
     atom   16 type  5   force =     0.00065558    0.00529107   -0.01907540
     atom   17 type  4   force =     0.00097974    0.00123894   -0.00636975
     atom   18 type  4   force =    -0.00097974   -0.00123894    0.00636975
     atom   19 type  5   force =     0.00740220   -0.01283156    0.03171783
     atom   20 type  5   force =    -0.00740220    0.01283156   -0.03171783
     atom   21 type  4   force =     0.01980343   -0.01649087    0.00969112
     atom   22 type  4   force =    -0.01980343    0.01649087   -0.00969112
     atom   23 type  3   force =    -0.01707788    0.00801051   -0.01190996
     atom   24 type  3   force =     0.01707788   -0.00801051    0.01190996
     atom   25 type  3   force =    -0.02423323    0.02885029   -0.04135861
     atom   26 type  3   force =     0.02423323   -0.02885029    0.04135861
     atom   27 type  3   force =    -0.03192956   -0.02013785    0.02496678
     atom   28 type  3   force =     0.03192956    0.02013785   -0.02496678
     atom   29 type  3   force =     0.02671571   -0.03172438   -0.02562527
     atom   30 type  3   force =    -0.02671571    0.03172438    0.02562527
     atom   31 type  3   force =     0.02558897    0.02684129    0.03297869
     atom   32 type  3   force =    -0.02558897   -0.02684129   -0.03297869
     atom   33 type  2   force =    -0.01516004    0.00822585   -0.01670784
     atom   34 type  2   force =     0.01516004   -0.00822585    0.01670784
     atom   35 type  3   force =     0.00722148   -0.00065753    0.00868449
     atom   36 type  3   force =    -0.00722148    0.00065753   -0.00868449
     atom   37 type  4   force =     0.01569187    0.02399640    0.00584293
     atom   38 type  4   force =    -0.01569187   -0.02399640   -0.00584293
     atom   39 type  4   force =    -0.03297834   -0.02235425   -0.01931576
     atom   40 type  4   force =     0.03297834    0.02235425    0.01931576
     atom   41 type  3   force =    -0.00018474    0.05062669   -0.00289625
     atom   42 type  3   force =     0.00018474   -0.05062669    0.00289625
     atom   43 type  4   force =     0.01225447   -0.03057027    0.00334563
     atom   44 type  4   force =    -0.01225447    0.03057027   -0.00334563
     atom   45 type  4   force =    -0.00700536   -0.01682605   -0.00309269
     atom   46 type  4   force =     0.00700536    0.01682605    0.00309269
     atom   47 type  3   force =     0.03099667   -0.01723544    0.02344343
     atom   48 type  3   force =    -0.03099667    0.01723544   -0.02344343
     atom   49 type  4   force =    -0.04527685   -0.00859570   -0.03309355
     atom   50 type  4   force =     0.04527685    0.00859570    0.03309355
     atom   51 type  4   force =    -0.01976794    0.02467296   -0.00370043
     atom   52 type  4   force =     0.01976794   -0.02467296    0.00370043
     atom   53 type  1   force =    -0.00161141    0.00050363    0.00008276
     atom   54 type  1   force =     0.00161141   -0.00050363   -0.00008276
     atom   55 type  1   force =     0.00702238   -0.00081818    0.00258282
     atom   56 type  1   force =    -0.00702238    0.00081818   -0.00258282
     atom   57 type  3   force =     0.04041118    0.00396827    0.04280144
     atom   58 type  3   force =    -0.04041118   -0.00396827   -0.04280144
     atom   59 type  4   force =    -0.01358635   -0.00450887   -0.03058085
     atom   60 type  4   force =     0.01358635    0.00450887    0.03058085
     atom   61 type  4   force =    -0.02455708   -0.00219491   -0.01106777
     atom   62 type  4   force =     0.02455708    0.00219491    0.01106777
     The non-local contrib.  to forces
     atom    1 type  5   force =     0.10957846   -0.11013527    0.17297555
     atom    2 type  5   force =    -0.10957846    0.11013527   -0.17297555
     atom    3 type  5   force =     0.02809154    0.03081898    0.04170146
     atom    4 type  5   force =    -0.02809154   -0.03081898   -0.04170146
     atom    5 type  4   force =    -0.07076353    0.03557254    0.01933367
     atom    6 type  4   force =     0.07076353   -0.03557254   -0.01933367
     atom    7 type  5   force =     0.04626800   -0.00641008   -0.00743169
     atom    8 type  5   force =    -0.04626800    0.00641008    0.00743169
     atom    9 type  5   force =    -0.10837156    0.13577343   -0.17990355
     atom   10 type  5   force =     0.10837156   -0.13577343    0.17990355
     atom   11 type  5   force =    -0.01500545   -0.02395956    0.00789173
     atom   12 type  5   force =     0.01500545    0.02395956   -0.00789173
     atom   13 type  4   force =     0.06898041   -0.03495401   -0.02375799
     atom   14 type  4   force =    -0.06898041    0.03495401    0.02375799
     atom   15 type  5   force =     0.09252071   -0.05526281    0.00237780
     atom   16 type  5   force =    -0.09252071    0.05526281   -0.00237780
     atom   17 type  4   force =     0.03317204    0.01286178   -0.07496513
     atom   18 type  4   force =    -0.03317204   -0.01286178    0.07496513
     atom   19 type  5   force =    -0.10943300    0.15859169   -0.15573662
     atom   20 type  5   force =     0.10943300   -0.15859169    0.15573662
     atom   21 type  4   force =    -0.07146273    0.03815377    0.01127228
     atom   22 type  4   force =     0.07146273   -0.03815377   -0.01127228
     atom   23 type  3   force =     0.88496893   -1.16050124    1.35689284
     atom   24 type  3   force =    -0.88496893    1.16050124   -1.35689284
     atom   25 type  3   force =     0.67001449   -1.06777233    1.73090267
     atom   26 type  3   force =    -0.67001449    1.06777233   -1.73090267
     atom   27 type  3   force =     1.51027261    0.93122097   -1.12619264
     atom   28 type  3   force =    -1.51027261   -0.93122097    1.12619264
     atom   29 type  3   force =    -1.18746612    1.30656042    1.11401948
     atom   30 type  3   force =     1.18746612   -1.30656042   -1.11401948
     atom   31 type  3   force =    -1.15204073   -1.20816230   -1.09977934
     atom   32 type  3   force =     1.15204073    1.20816230    1.09977934
     atom   33 type  2   force =     0.05365506   -0.01164405    0.04083403
     atom   34 type  2   force =    -0.05365506    0.01164405   -0.04083403
     atom   35 type  3   force =    -0.40544463    1.18394295   -1.37460353
     atom   36 type  3   force =     0.40544463   -1.18394295    1.37460353
     atom   37 type  4   force =     0.06396674    0.02754098    0.07579189
     atom   38 type  4   force =    -0.06396674   -0.02754098   -0.07579189
     atom   39 type  4   force =    -0.03943719   -0.09479418    0.00798736
     atom   40 type  4   force =     0.03943719    0.09479418   -0.00798736
     atom   41 type  3   force =    -0.58966845    2.03741147    0.38655527
     atom   42 type  3   force =     0.58966845   -2.03741147   -0.38655527
     atom   43 type  4   force =    -0.03172301   -0.08960837    0.03735064
     atom   44 type  4   force =     0.03172301    0.08960837   -0.03735064
     atom   45 type  4   force =     0.07460605   -0.03061005   -0.06383121
     atom   46 type  4   force =    -0.07460605    0.03061005    0.06383121
     atom   47 type  3   force =    -0.06099278    0.45641528    1.94700638
     atom   48 type  3   force =     0.06099278   -0.45641528   -1.94700638
     atom   49 type  4   force =    -0.03721914    0.04017951   -0.08403068
     atom   50 type  4   force =     0.03721914   -0.04017951    0.08403068
     atom   51 type  4   force =     0.06273070   -0.07010370   -0.03370614
     atom   52 type  4   force =    -0.06273070    0.07010370    0.03370614
     atom   53 type  1   force =     0.07972886    0.00838374   -0.00424049
     atom   54 type  1   force =    -0.07972886   -0.00838374    0.00424049
     atom   55 type  1   force =    -0.10411518    0.03722915   -0.06029084
     atom   56 type  1   force =     0.10411518   -0.03722915    0.06029084
     atom   57 type  3   force =     1.40766488    1.19249341    1.32582411
     atom   58 type  3   force =    -1.40766488   -1.19249341   -1.32582411
     atom   59 type  4   force =    -0.07829447    0.02010823   -0.06040822
     atom   60 type  4   force =     0.07829447   -0.02010823    0.06040822
     atom   61 type  4   force =    -0.00117331   -0.10134894   -0.00891708
     atom   62 type  4   force =     0.00117331    0.10134894    0.00891708
     The ionic contribution  to forces
     atom    1 type  5   force =     0.28423982    2.28940031   -0.08988228
     atom    2 type  5   force =    -0.28427320   -2.28938474    0.08984675
     atom    3 type  5   force =     3.88557796    0.08768750   -1.40498969
     atom    4 type  5   force =    -3.88558254   -0.08766940    1.40495881
     atom    5 type  4   force =     2.09003124   -0.59040440   -0.85436964
     atom    6 type  4   force =    -2.09003423    0.59041006    0.85436245
     atom    7 type  5   force =     1.48975124   -0.01037445    0.75165800
     atom    8 type  5   force =    -1.48968322    0.01035888   -0.75171129
     atom    9 type  5   force =     0.25508896   -1.24416162    3.23335714
     atom   10 type  5   force =    -0.25504104    1.24408731   -3.23334127
     atom   11 type  5   force =    -3.60044463    2.23056472    2.51761895
     atom   12 type  5   force =     3.60045880   -2.23060830   -2.51759740
     atom   13 type  4   force =    -1.85195294    1.02625383    0.97172087
     atom   14 type  4   force =     1.85196831   -1.02625860   -0.97171255
     atom   15 type  5   force =    -2.38659459    2.34796334    3.22470250
     atom   16 type  5   force =     2.38657500   -2.34790189   -3.22475446
     atom   17 type  4   force =    -0.94045165    0.64518560    1.74946095
     atom   18 type  4   force =     0.94042914   -0.64519078   -1.74943036
     atom   19 type  5   force =     4.39747798   -3.80540835    4.11974682
     atom   20 type  5   force =    -4.39747523    3.80544689   -4.11958121
     atom   21 type  4   force =     2.07972502   -1.45332975    0.22004969
     atom   22 type  4   force =    -2.07971757    1.45329994   -0.22004849
     atom   23 type  3   force =    -5.44790134    3.25147600   -0.41424235
     atom   24 type  3   force =     5.44785232   -3.25140407    0.41420400
     atom   25 type  3   force =     0.41081499    1.98000057   -2.64261486
     atom   26 type  3   force =    -0.41084853   -1.98001228    2.64254628
     atom   27 type  3   force =    -5.84622787   -0.94083945    4.10021109
     atom   28 type  3   force =     5.84629450    0.94079784   -4.10030329
     atom   29 type  3   force =     5.83425839   -2.42344923   -6.74857267
     atom   30 type  3   force =    -5.83438391    2.42354947    6.74863984
     atom   31 type  3   force =     5.81123773   10.30542221    4.69676864
     atom   32 type  3   force =    -5.81109300  -10.30532396   -4.69667833
     atom   33 type  2   force =    -0.36497180    5.34011046   -2.60682994
     atom   34 type  2   force =     0.36493706   -5.34027534    2.60677697
     atom   35 type  3   force =     0.04311410    5.38792192   -0.30561427
     atom   36 type  3   force =    -0.04308687   -5.38789607    0.30566889
     atom   37 type  4   force =    -1.63431647    0.21714142   -2.15142119
     atom   38 type  4   force =     1.63425974   -0.21715583    2.15138892
     atom   39 type  4   force =     0.95311952    3.48305563   -0.36400237
     atom   40 type  4   force =    -0.95311745   -3.48305321    0.36399879
     atom   41 type  3   force =     0.89215442    3.00822207   -1.65024128
     atom   42 type  3   force =    -0.89209515   -3.00822608    1.65023125
     atom   43 type  4   force =     0.99638437    3.42509773   -1.48029217
     atom   44 type  4   force =    -0.99639336   -3.42513143    1.48027364
     atom   45 type  4   force =    -1.77281655    1.64488305    1.55349139
     atom   46 type  4   force =     1.77277136   -1.64486193   -1.55348534
     atom   47 type  3   force =     1.33321223    2.71587609   -3.77645612
     atom   48 type  3   force =    -1.33325954   -2.71584457    3.77641112
     atom   49 type  4   force =     0.99736492   -0.98699720    2.48641044
     atom   50 type  4   force =    -0.99734936    0.98701312   -2.48637942
     atom   51 type  4   force =    -1.21936908    2.03763813    0.50702690
     atom   52 type  4   force =     1.21938750   -2.03766222   -0.50700845
     atom   53 type  1   force =     1.84487587    2.26352705    0.15678992
     atom   54 type  1   force =    -1.84487059   -2.26349012   -0.15674602
     atom   55 type  1   force =    -2.64020629    4.49398046    1.53928805
     atom   56 type  1   force =     2.64019600   -4.49398390   -1.53931745
     atom   57 type  3   force =    -2.52078890   -2.43578156   -2.69719818
     atom   58 type  3   force =     2.52075156    2.43566798    2.69723302
     atom   59 type  4   force =     2.39018561   -0.53828541    1.81172979
     atom   60 type  4   force =    -2.39015330    0.53824356   -1.81173313
     atom   61 type  4   force =    -0.00895107    1.84246867    0.13582691
     atom   62 type  4   force =     0.00895562   -1.84238567   -0.13584332
     The local contribution  to forces
     atom    1 type  5   force =    -0.39649518   -2.17561917   -0.08533129
     atom    2 type  5   force =     0.39652597    2.17560298    0.08536700
     atom    3 type  5   force =    -3.88952795   -0.12225812    1.36603607
     atom    4 type  5   force =     3.88953459    0.12223803   -1.36600375
     atom    5 type  4   force =    -2.02451183    0.55391113    0.83167337
     atom    6 type  4   force =     2.02451451   -0.55391656   -0.83166584
     atom    7 type  5   force =    -1.51957313    0.01584927   -0.76229435
     atom    8 type  5   force =     1.51950366   -0.01583701    0.76235079
     atom    9 type  5   force =    -0.15629684    1.11081047   -3.05235354
     atom   10 type  5   force =     0.15625437   -1.11073587    3.05233682
     atom   11 type  5   force =     3.59737215   -2.19782822   -2.51251913
     atom   12 type  5   force =    -3.59738639    2.19787141    2.51249097
     atom   13 type  4   force =     1.78459785   -0.99027646   -0.95067110
     atom   14 type  4   force =    -1.78461042    0.99028009    0.95066066
     atom   15 type  5   force =     2.29561841   -2.30007273   -3.20626276
     atom   16 type  5   force =    -2.29559805    2.30001133    3.20631363
     atom   17 type  4   force =     0.90826392   -0.65680440   -1.68085940
     atom   18 type  4   force =    -0.90824653    0.65680807    1.68084022
     atom   19 type  5   force =    -4.28249960    3.63670037   -3.93360296
     atom   20 type  5   force =     4.28250065   -3.63675010    3.93344527
     atom   21 type  4   force =    -1.98845137    1.39868919   -0.22162341
     atom   22 type  4   force =     1.98844998   -1.39866239    0.22162211
     atom   23 type  3   force =     4.55761428   -2.09887670   -0.93581059
     atom   24 type  3   force =    -4.55758288    2.09882567    0.93586313
     atom   25 type  3   force =    -1.09677092   -0.89657166    0.89223700
     atom   26 type  3   force =     1.09680272    0.89656994   -0.89218927
     atom   27 type  3   force =     4.32328790    0.00137988   -2.96345925
     atom   28 type  3   force =    -4.32333895   -0.00135250    2.96353135
     atom   29 type  3   force =    -4.63528910    1.10184419    5.62335279
     atom   30 type  3   force =     4.63537921   -1.10192502   -5.62341110
     atom   31 type  3   force =    -4.64827398   -9.08595642   -3.57784138
     atom   32 type  3   force =     4.64816794    9.08587200    3.57776669
     atom   33 type  2   force =     0.29804363   -5.31871819    2.54936608
     atom   34 type  2   force =    -0.29800719    5.31888518   -2.54931780
     atom   35 type  3   force =     0.36377384   -6.55518081    1.66921850
     atom   36 type  3   force =    -0.36378033    6.55516048   -1.66926505
     atom   37 type  4   force =     1.58603132   -0.22068582    2.08145475
     atom   38 type  4   force =    -1.58598265    0.22069745   -2.08143272
     atom   39 type  4   force =    -0.94665704   -3.41060970    0.33669740
     atom   40 type  4   force =     0.94665449    3.41060755   -0.33669405
     atom   41 type  3   force =    -0.31068495   -4.96564935    1.26588349
     atom   42 type  3   force =     0.31064725    4.96565842   -1.26585782
     atom   43 type  4   force =    -0.95241007   -3.36605105    1.44628962
     atom   44 type  4   force =     0.95241672    3.36607844   -1.44626871
     atom   45 type  4   force =     1.69119773   -1.63108792   -1.49274091
     atom   46 type  4   force =    -1.69116092    1.63107111    1.49274193
     atom   47 type  3   force =    -1.24122412   -3.18349208    1.88048729
     atom   48 type  3   force =     1.24125664    3.18346617   -1.88045170
     atom   49 type  4   force =    -1.00541941    0.93822051   -2.43546799
     atom   50 type  4   force =     1.00540856   -0.93824017    2.43544326
     atom   51 type  4   force =     1.13687079   -1.94286587   -0.47701943
     atom   52 type  4   force =    -1.13688676    1.94288669    0.47699780
     atom   53 type  1   force =    -1.92628243   -2.27134794   -0.15260971
     atom   54 type  1   force =     1.92627524    2.27130967    0.15255740
     atom   55 type  1   force =     2.75137668   -4.53191749   -1.47635203
     atom   56 type  1   force =    -2.75136755    4.53192679    1.47638698
     atom   57 type  3   force =     1.17381905    1.26371363    1.43324150
     atom   58 type  3   force =    -1.17380051   -1.26360457   -1.43326340
     atom   59 type  4   force =    -2.32546597    0.51366970   -1.78189451
     atom   60 type  4   force =     2.32543918   -0.51362784    1.78190153
     atom   61 type  4   force =    -0.01442755   -1.74329282   -0.13797583
     atom   62 type  4   force =     0.01442484    1.74323058    0.13799476
     The core correction contribution to forces
     atom    1 type  5   force =    -0.00326405    0.00377187   -0.00578942
     atom    2 type  5   force =     0.00326411   -0.00377200    0.00578953
     atom    3 type  5   force =    -0.00217875   -0.00049320   -0.00026660
     atom    4 type  5   force =     0.00217880    0.00049313    0.00026672
     atom    5 type  4   force =     0.00000000    0.00000000    0.00000000
     atom    6 type  4   force =     0.00000000    0.00000000    0.00000000
     atom    7 type  5   force =    -0.00101134   -0.00034030    0.00058008
     atom    8 type  5   force =     0.00101112    0.00034017   -0.00057966
     atom    9 type  5   force =     0.00261005   -0.00336422    0.00483374
     atom   10 type  5   force =    -0.00261001    0.00336446   -0.00483425
     atom   11 type  5   force =     0.00195924   -0.00022541   -0.00002679
     atom   12 type  5   force =    -0.00195936    0.00022564    0.00002626
     atom   13 type  4   force =     0.00000000    0.00000000    0.00000000
     atom   14 type  4   force =     0.00000000    0.00000000    0.00000000
     atom   15 type  5   force =    -0.00214950    0.00215400   -0.00179101
     atom   16 type  5   force =     0.00214954   -0.00215427    0.00179167
     atom   17 type  4   force =     0.00000000    0.00000000    0.00000000
     atom   18 type  4   force =     0.00000000    0.00000000    0.00000000
     atom   19 type  5   force =     0.00186178   -0.00266843    0.00140131
     atom   20 type  5   force =    -0.00186164    0.00266847   -0.00140191
     atom   21 type  4   force =     0.00000000    0.00000000    0.00000000
     atom   22 type  4   force =     0.00000000    0.00000000    0.00000000
     atom   23 type  3   force =    -0.01172755    0.01603510   -0.01869790
     atom   24 type  3   force =     0.01172739   -0.01603496    0.01869832
     atom   25 type  3   force =    -0.00831318    0.01332805   -0.02183881
     atom   26 type  3   force =     0.00831332   -0.01332848    0.02183884
     atom   27 type  3   force =    -0.01933684   -0.01192821    0.01448655
     atom   28 type  3   force =     0.01933686    0.01192785   -0.01448668
     atom   29 type  3   force =     0.01516964   -0.01665408   -0.01435370
     atom   30 type  3   force =    -0.01516973    0.01665388    0.01435346
     atom   31 type  3   force =     0.01471378    0.01562511    0.01391941
     atom   32 type  3   force =    -0.01471359   -0.01562535   -0.01391957
     atom   33 type  2   force =    -0.00195393   -0.00141029    0.00005299
     atom   34 type  2   force =     0.00195432    0.00141326   -0.00005168
     atom   35 type  3   force =     0.00578908   -0.01731346    0.01964334
     atom   36 type  3   force =    -0.00578896    0.01731347   -0.01964346
     atom   37 type  4   force =     0.00000000    0.00000000    0.00000000
     atom   38 type  4   force =     0.00000000    0.00000000    0.00000000
     atom   39 type  4   force =     0.00000000    0.00000000    0.00000000
     atom   40 type  4   force =     0.00000000    0.00000000    0.00000000
     atom   41 type  3   force =     0.00799327   -0.02928724   -0.00505113
     atom   42 type  3   force =    -0.00799321    0.02928726    0.00505161
     atom   43 type  4   force =     0.00000000    0.00000000    0.00000000
     atom   44 type  4   force =     0.00000000    0.00000000    0.00000000
     atom   45 type  4   force =     0.00000000    0.00000000    0.00000000
     atom   46 type  4   force =     0.00000000    0.00000000    0.00000000
     atom   47 type  3   force =     0.00000369   -0.00602488   -0.02757462
     atom   48 type  3   force =    -0.00000373    0.00602478    0.02757456
     atom   49 type  4   force =     0.00000000    0.00000000    0.00000000
     atom   50 type  4   force =     0.00000000    0.00000000    0.00000000
     atom   51 type  4   force =     0.00000000    0.00000000    0.00000000
     atom   52 type  4   force =     0.00000000    0.00000000    0.00000000
     atom   53 type  1   force =     0.00000000    0.00000000    0.00000000
     atom   54 type  1   force =     0.00000000    0.00000000    0.00000000
     atom   55 type  1   force =     0.00000000    0.00000000    0.00000000
     atom   56 type  1   force =     0.00000000    0.00000000    0.00000000
     atom   57 type  3   force =    -0.02025511   -0.01644456   -0.01904774
     atom   58 type  3   force =     0.02025501    0.01644503    0.01904813
     atom   59 type  4   force =     0.00000000    0.00000000    0.00000000
     atom   60 type  4   force =     0.00000000    0.00000000    0.00000000
     atom   61 type  4   force =     0.00000000    0.00000000    0.00000000
     atom   62 type  4   force =     0.00000000    0.00000000    0.00000000
     The Hubbard contrib.    to forces
     atom    1 type  5   force =     0.00000000    0.00000000    0.00000000
     atom    2 type  5   force =     0.00000000    0.00000000    0.00000000
     atom    3 type  5   force =     0.00000000    0.00000000    0.00000000
     atom    4 type  5   force =     0.00000000    0.00000000    0.00000000
     atom    5 type  4   force =     0.00000000    0.00000000    0.00000000
     atom    6 type  4   force =     0.00000000    0.00000000    0.00000000
     atom    7 type  5   force =     0.00000000    0.00000000    0.00000000
     atom    8 type  5   force =     0.00000000    0.00000000    0.00000000
     atom    9 type  5   force =     0.00000000    0.00000000    0.00000000
     atom   10 type  5   force =     0.00000000    0.00000000    0.00000000
     atom   11 type  5   force =     0.00000000    0.00000000    0.00000000
     atom   12 type  5   force =     0.00000000    0.00000000    0.00000000
     atom   13 type  4   force =     0.00000000    0.00000000    0.00000000
     atom   14 type  4   force =     0.00000000    0.00000000    0.00000000
     atom   15 type  5   force =     0.00000000    0.00000000    0.00000000
     atom   16 type  5   force =     0.00000000    0.00000000    0.00000000
     atom   17 type  4   force =     0.00000000    0.00000000    0.00000000
     atom   18 type  4   force =     0.00000000    0.00000000    0.00000000
     atom   19 type  5   force =     0.00000000    0.00000000    0.00000000
     atom   20 type  5   force =     0.00000000    0.00000000    0.00000000
     atom   21 type  4   force =     0.00000000    0.00000000    0.00000000
     atom   22 type  4   force =     0.00000000    0.00000000    0.00000000
     atom   23 type  3   force =     0.00000000    0.00000000    0.00000000
     atom   24 type  3   force =     0.00000000    0.00000000    0.00000000
     atom   25 type  3   force =     0.00000000    0.00000000    0.00000000
     atom   26 type  3   force =     0.00000000    0.00000000    0.00000000
     atom   27 type  3   force =     0.00000000    0.00000000    0.00000000
     atom   28 type  3   force =     0.00000000    0.00000000    0.00000000
     atom   29 type  3   force =     0.00000000    0.00000000    0.00000000
     atom   30 type  3   force =     0.00000000    0.00000000    0.00000000
     atom   31 type  3   force =     0.00000000    0.00000000    0.00000000
     atom   32 type  3   force =     0.00000000    0.00000000    0.00000000
     atom   33 type  2   force =     0.00000000    0.00000000    0.00000000
     atom   34 type  2   force =     0.00000000    0.00000000    0.00000000
     atom   35 type  3   force =     0.00000000    0.00000000    0.00000000
     atom   36 type  3   force =     0.00000000    0.00000000    0.00000000
     atom   37 type  4   force =     0.00000000    0.00000000    0.00000000
     atom   38 type  4   force =     0.00000000    0.00000000    0.00000000
     atom   39 type  4   force =     0.00000000    0.00000000    0.00000000
     atom   40 type  4   force =     0.00000000    0.00000000    0.00000000
     atom   41 type  3   force =     0.00000000    0.00000000    0.00000000
     atom   42 type  3   force =     0.00000000    0.00000000    0.00000000
     atom   43 type  4   force =     0.00000000    0.00000000    0.00000000
     atom   44 type  4   force =     0.00000000    0.00000000    0.00000000
     atom   45 type  4   force =     0.00000000    0.00000000    0.00000000
     atom   46 type  4   force =     0.00000000    0.00000000    0.00000000
     atom   47 type  3   force =     0.00000000    0.00000000    0.00000000
     atom   48 type  3   force =     0.00000000    0.00000000    0.00000000
     atom   49 type  4   force =     0.00000000    0.00000000    0.00000000
     atom   50 type  4   force =     0.00000000    0.00000000    0.00000000
     atom   51 type  4   force =     0.00000000    0.00000000    0.00000000
     atom   52 type  4   force =     0.00000000    0.00000000    0.00000000
     atom   53 type  1   force =     0.00000000    0.00000000    0.00000000
     atom   54 type  1   force =     0.00000000    0.00000000    0.00000000
     atom   55 type  1   force =     0.00000000    0.00000000    0.00000000
     atom   56 type  1   force =     0.00000000    0.00000000    0.00000000
     atom   57 type  3   force =     0.00000000    0.00000000    0.00000000
     atom   58 type  3   force =     0.00000000    0.00000000    0.00000000
     atom   59 type  4   force =     0.00000000    0.00000000    0.00000000
     atom   60 type  4   force =     0.00000000    0.00000000    0.00000000
     atom   61 type  4   force =     0.00000000    0.00000000    0.00000000
     atom   62 type  4   force =     0.00000000    0.00000000    0.00000000
     The SCF correction term to forces
     atom    1 type  5   force =     0.00005922   -0.00010574   -0.00000241
     atom    2 type  5   force =    -0.00005935    0.00010586    0.00000272
     atom    3 type  5   force =     0.00005692   -0.00010107   -0.00004257
     atom    4 type  5   force =    -0.00005676    0.00010108    0.00004200
     atom    5 type  4   force =    -0.00000295   -0.00000674    0.00000006
     atom    6 type  4   force =     0.00000309    0.00000672   -0.00000025
     atom    7 type  5   force =     0.00002120   -0.00010936   -0.00008243
     atom    8 type  5   force =    -0.00002123    0.00010970    0.00008082
     atom    9 type  5   force =    -0.00006274   -0.00005454   -0.00006487
     atom   10 type  5   force =     0.00006284    0.00005415    0.00006436
     atom   11 type  5   force =    -0.00012938   -0.00001806   -0.00000034
     atom   12 type  5   force =     0.00012916    0.00001838    0.00000071
     atom   13 type  4   force =    -0.00001091   -0.00000495    0.00000264
     atom   14 type  4   force =     0.00001103    0.00000492   -0.00000264
     atom   15 type  5   force =    -0.00005042   -0.00007280    0.00004879
     atom   16 type  5   force =     0.00004999    0.00007317   -0.00004850
     atom   17 type  4   force =    -0.00000716   -0.00000479   -0.00000036
     atom   18 type  4   force =     0.00000708    0.00000481    0.00000058
     atom   19 type  5   force =    -0.00000358   -0.00005164   -0.00008842
     atom   20 type  5   force =     0.00000241    0.00005319    0.00008569
     atom   21 type  4   force =    -0.00000447   -0.00000552   -0.00000766
     atom   22 type  4   force =     0.00000445    0.00000563    0.00000731
     atom   23 type  3   force =    -0.00004174   -0.00011199   -0.00004677
     atom   24 type  3   force =     0.00004044    0.00011227    0.00004254
     atom   25 type  3   force =     0.00001990   -0.00014068   -0.00005579
     atom   26 type  3   force =    -0.00002128    0.00014188    0.00005425
     atom   27 type  3   force =     0.00008242    0.00002172   -0.00008797
     atom   28 type  3   force =    -0.00008248   -0.00002160    0.00009020
     atom   29 type  3   force =     0.00002560   -0.00001607   -0.00006634
     atom   30 type  3   force =    -0.00002471    0.00001609    0.00006739
     atom   31 type  3   force =    -0.00002824   -0.00008042   -0.00007989
     atom   32 type  3   force =     0.00002853    0.00008061    0.00008194
     atom   33 type  2   force =     0.00006815   -0.00010929   -0.00013171
     atom   34 type  2   force =    -0.00006793    0.00010979    0.00013367
     atom   35 type  3   force =    -0.00000050   -0.00002563    0.00004504
     atom   36 type  3   force =     0.00000047    0.00002512   -0.00004382
     atom   37 type  4   force =     0.00000623   -0.00000158    0.00001244
     atom   38 type  4   force =    -0.00000626    0.00000156   -0.00001226
     atom   39 type  4   force =    -0.00000388   -0.00000590    0.00000181
     atom   40 type  4   force =     0.00000387    0.00000583   -0.00000165
     atom   41 type  3   force =     0.00003166   -0.00006815   -0.00003446
     atom   42 type  3   force =    -0.00003190    0.00006728    0.00003462
     atom   43 type  4   force =     0.00000200   -0.00001176   -0.00000124
     atom   44 type  4   force =    -0.00000202    0.00001171    0.00000129
     atom   45 type  4   force =     0.00000320   -0.00000904   -0.00000846
     atom   46 type  4   force =    -0.00000324    0.00000891    0.00000840
     atom   47 type  3   force =    -0.00000971   -0.00000754   -0.00002486
     atom   48 type  3   force =     0.00000981    0.00000665    0.00002362
     atom   49 type  4   force =    -0.00000088   -0.00000044   -0.00000231
     atom   50 type  4   force =     0.00000087    0.00000033    0.00000203
     atom   51 type  4   force =     0.00000085    0.00000276   -0.00000346
     atom   52 type  4   force =    -0.00000089   -0.00000277    0.00000324
     atom   53 type  1   force =     0.00006489   -0.00005979    0.00014007
     atom   54 type  1   force =    -0.00006580    0.00005998   -0.00013761
     atom   55 type  1   force =    -0.00003254   -0.00010779   -0.00005992
     atom   56 type  1   force =     0.00003429    0.00010695    0.00005924
     atom   57 type  3   force =    -0.00003814   -0.00001465   -0.00001097
     atom   58 type  3   force =     0.00003824    0.00001469    0.00001221
     atom   59 type  4   force =    -0.00000877   -0.00000138   -0.00000600
     atom   60 type  4   force =     0.00000875    0.00000137    0.00000614
     atom   61 type  4   force =    -0.00000423   -0.00001147   -0.00000041
     atom   62 type  4   force =     0.00000425    0.00001140    0.00000062

     Total force =     0.259876     Total SCF correction =     0.000725


     entering subroutine stress ...



     ----------------------------------------------------------------

     Non-local correlation energy =              3.825730166421215

     ----------------------------------------------------------------

          VDW GRADIENT stress
             0.00005083   0.00000000   0.00000000
             0.00000241   0.00005200   0.00000000
             0.00000086   0.00000152   0.00004959

          VDW KERNEL stress
            -0.00032300   0.00000000   0.00000000
            -0.00004413  -0.00035172   0.00000000
            -0.00000987  -0.00003638  -0.00029802

          VDW ALL stress
             0.00027217   0.00004172   0.00000901
             0.00004172   0.00029972   0.00003486
             0.00000901   0.00003486   0.00024843

          total   stress  (Ry/bohr**3)                   (kbar)     P=   27.58
   0.00017984  -0.00008288  -0.00003117         26.46    -12.19     -4.59
  -0.00008288   0.00017777  -0.00004950        -12.19     26.15     -7.28
  -0.00003117  -0.00004950   0.00020484         -4.59     -7.28     30.13

     kinetic stress (kbar)  12837.37    125.06    -82.02
                              125.06  12723.35    135.31
                              -82.02    135.31  12763.54

     local   stress (kbar) -12820.33   4161.07    199.33
                             4161.07  -4520.78   1774.02
                              199.33   1774.02 -14667.92

     nonloc. stress (kbar)   1760.50    -11.07    -28.89
                              -11.07   1734.11     -3.66
                              -28.89     -3.66   1749.21

     hartree stress (kbar)   7189.31  -1355.51     13.76
                            -1355.51   3523.05   -319.27
                               13.76   -319.27   7651.51

     exc-cor stress (kbar)  -2155.31    -27.60     -8.22
                              -27.60  -2174.43    -18.86
                               -8.22    -18.86  -2145.07

     corecor stress (kbar)  -1012.50      4.22      3.33
                                4.22  -1007.09      2.30
                                3.33      2.30  -1013.85

     ewald   stress (kbar)  -5812.62  -2914.50   -103.19
                            -2914.50 -10296.15  -1582.23
                             -103.19  -1582.23  -4343.84

     hubbard stress (kbar)      0.00      0.00      0.00
                                0.00      0.00      0.00
                                0.00      0.00      0.00

     london  stress (kbar)      0.00      0.00      0.00
                                0.00      0.00      0.00
                                0.00      0.00      0.00

     dft-nl  stress (kbar)     40.04      6.14      1.33
                                6.14     44.09      5.13
                                1.33      5.13     36.54



     BFGS Geometry Optimization

     number of scf cycles    =   1
     number of bfgs steps    =   0

     enthalpy new            =   -1617.4261825666 Ry

     new trust radius        =       0.0685979291 bohr
     new conv_thr            =       0.0000010000 Ry

     new unit-cell volume =   4206.46373 a.u.^3 (   623.33361 Ang^3 )

CELL_PARAMETERS (alat= 10.66485840)
   1.004495868  -0.002072118  -0.000779369
   0.463175039   1.756521627  -0.002527277
   0.210851570   1.112762322   1.962791394

ATOMIC_POSITIONS (angstrom)
C        3.792707016  13.574988224   8.297097713
C        5.680203456   2.606407480   2.761454716
C        4.339040110  13.795387700   7.044826315
C        5.133870361   2.386008004   4.013726115
H        5.270842487  13.319200090   6.765557208
H        4.202067985   2.862195614   4.292995222
C        1.068678136   4.718318446   6.113386832
C        8.404232336  11.463077258   4.945165598
C        5.475586873   5.343537282   6.458659474
C        3.997323606  10.837858434   4.599882904
C        4.971049237   5.099650727   7.785673643
C        4.501861242  11.081744990   3.272868736
H        4.047963909   5.578855647   8.089403783
H        5.424946563  10.602540057   2.969148647
C        8.248261109  14.180948303   8.666478163
C        1.224649363   2.000447401   2.392074267
H        7.823396835  14.010982459   9.646964086
H        1.649513644   2.170413257   1.411578293
C        1.705719888   4.826888355   4.836379583
C        7.767190571  11.354517405   6.222162783
H        2.663170789   4.292430953   4.707722752
H        6.809729645  11.888964784   6.350819635
O        4.813806432   6.104796533   5.636190509
O        4.659104039  10.076599170   5.422361921
O        1.291369649   5.470078019   3.810395747
O        8.181540830  10.711317697   7.248146632
O        3.534916061  11.890012643  10.280235932
O        5.937994411   4.291383061   0.778316498
O        5.449258388  11.563454620   8.732359142
O        4.023652091   4.617941097   2.326183236
O        5.431364660  13.444999672  10.335419598
O        4.041545820   2.736396045   0.723122781
S        4.599851389  12.544798381   9.472661628
S        4.873059062   3.636607367   1.585890790
O        5.961494675   7.329522611   1.407712524
O        3.511415804   8.851873105   9.650829855
H        5.351114686   7.112746194   0.657235659
H        4.121795785   9.068649510  10.401316771
H        6.306920345   8.238402689   1.289450214
H        3.165990134   7.942993027   9.769092165
O        3.012355330   7.852501341   2.776748464
O        6.460555142   8.328894363   8.281803966
H        3.308558408   8.694009750   2.421319300
H        6.164352071   7.487385966   8.637223079
H        2.292049815   8.132835314   3.396253250
H        7.180860664   8.048560402   7.662289129
O        6.529979450   8.358680653   4.511244552
O        2.942931029   7.822715063   6.547297826
H        6.879619120   7.990623387   5.321574126
H        2.593291339   8.190782373   5.736968240
H        5.886178090   9.081606281   4.852298904
H        3.586732382   7.099789423   6.206253526
Na       2.057929517   5.715221638   1.556713811
Na       7.414980962  10.466174078   9.501828567
Na       4.954224854   6.594041733   3.424899224
Na       4.518685617   9.587353971   7.633653206
O        6.916054257   9.931972051   0.573836653
O        2.556856194   6.249433697  10.484715765
H        7.657270492   9.734978366   1.139613447
H        1.815639987   6.446417350   9.918928931
H        4.291097654   1.007562189   0.661331306
H        5.181812826  15.173833527  10.397211072



     Writing output data file i2t0429_ns_merc.xyz.save
     NEW-OLD atomic charge density approx. for the potential
     NEW k-points:
        k(    1) = (   0.0000000   0.0000000   0.0000000), wk =   2.0000000

     Check: negative/imaginary core charge=   -0.000001    0.000000


     ----------------------------------------------------------------

     Non-local correlation energy =              3.864450603039798

     ----------------------------------------------------------------

     extrapolated charge  239.24635, renormalised to  236.00000

     total cpu time spent up to now is     1113.3 secs

     per-process dynamical memory:   475.8 Mb

     Self-consistent Calculation

     iteration #  1     ecut=    50.00 Ry     beta=0.70
     Davidson diagonalization with overlap
     ethr =  1.00E-06,  avg # of iterations = 20.0


     ----------------------------------------------------------------

     Non-local correlation energy =              3.793914099949803

     ----------------------------------------------------------------


     total cpu time spent up to now is     1172.9 secs

     total energy              =   -1617.20590301 Ry
     Harris-Foulkes estimate   =   -1608.05411964 Ry
     estimated scf accuracy    <       0.24544660 Ry

     iteration #  2     ecut=    50.00 Ry     beta=0.70
     Davidson diagonalization with overlap
     ethr =  1.04E-04,  avg # of iterations =  5.0


     ----------------------------------------------------------------

     Non-local correlation energy =              3.818893077268545

     ----------------------------------------------------------------


     total cpu time spent up to now is     1221.6 secs

     total energy              =   -1617.38427190 Ry
     Harris-Foulkes estimate   =   -1617.67297367 Ry
     estimated scf accuracy    <       0.77919958 Ry

     iteration #  3     ecut=    50.00 Ry     beta=0.70
     Davidson diagonalization with overlap
     ethr =  1.04E-04,  avg # of iterations =  4.0


     ----------------------------------------------------------------

     Non-local correlation energy =              3.829865737016048

     ----------------------------------------------------------------


     total cpu time spent up to now is     1265.6 secs

     total energy              =   -1617.44903133 Ry
     Harris-Foulkes estimate   =   -1617.47457559 Ry
     estimated scf accuracy    <       0.06903326 Ry

     iteration #  4     ecut=    50.00 Ry     beta=0.70
     Davidson diagonalization with overlap
     ethr =  2.93E-05,  avg # of iterations =  5.0


     ----------------------------------------------------------------

     Non-local correlation energy =              3.838679316189973

     ----------------------------------------------------------------


     total cpu time spent up to now is     1308.5 secs

     total energy              =   -1617.44530805 Ry
     Harris-Foulkes estimate   =   -1617.45835041 Ry
     estimated scf accuracy    <       0.03248755 Ry

     iteration #  5     ecut=    50.00 Ry     beta=0.70
     Davidson diagonalization with overlap
     ethr =  1.38E-05,  avg # of iterations =  4.0


     ----------------------------------------------------------------

     Non-local correlation energy =              3.840780279389221

     ----------------------------------------------------------------


     total cpu time spent up to now is     1352.0 secs

     total energy              =   -1617.45065919 Ry
     Harris-Foulkes estimate   =   -1617.45219031 Ry
     estimated scf accuracy    <       0.00339135 Ry

     iteration #  6     ecut=    50.00 Ry     beta=0.70
     Davidson diagonalization with overlap
     ethr =  1.44E-06,  avg # of iterations =  7.0


     ----------------------------------------------------------------

     Non-local correlation energy =              3.840555292140662

     ----------------------------------------------------------------


     total cpu time spent up to now is     1399.6 secs

     total energy              =   -1617.45205474 Ry
     Harris-Foulkes estimate   =   -1617.45227942 Ry
     estimated scf accuracy    <       0.00057343 Ry

     iteration #  7     ecut=    50.00 Ry     beta=0.70
     Davidson diagonalization with overlap
     ethr =  2.43E-07,  avg # of iterations =  3.0


     ----------------------------------------------------------------

     Non-local correlation energy =              3.840334500376084

     ----------------------------------------------------------------


     total cpu time spent up to now is     1442.5 secs

     total energy              =   -1617.45206229 Ry
     Harris-Foulkes estimate   =   -1617.45212437 Ry
     estimated scf accuracy    <       0.00016995 Ry

     iteration #  8     ecut=    50.00 Ry     beta=0.70
     Davidson diagonalization with overlap
     ethr =  7.20E-08,  avg # of iterations =  4.0


     ----------------------------------------------------------------

     Non-local correlation energy =              3.840196801145469

     ----------------------------------------------------------------


     total cpu time spent up to now is     1486.8 secs

     total energy              =   -1617.45208053 Ry
     Harris-Foulkes estimate   =   -1617.45210032 Ry
     estimated scf accuracy    <       0.00003702 Ry

     iteration #  9     ecut=    50.00 Ry     beta=0.70
     Davidson diagonalization with overlap
     ethr =  1.57E-08,  avg # of iterations =  4.0


     ----------------------------------------------------------------

     Non-local correlation energy =              3.840267129994838

     ----------------------------------------------------------------


     total cpu time spent up to now is     1534.0 secs

     total energy              =   -1617.45209461 Ry
     Harris-Foulkes estimate   =   -1617.45209891 Ry
     estimated scf accuracy    <       0.00000911 Ry

     iteration # 10     ecut=    50.00 Ry     beta=0.70
     Davidson diagonalization with overlap
     ethr =  3.86E-09,  avg # of iterations =  3.0


     ----------------------------------------------------------------

     Non-local correlation energy =              3.840307776874766

     ----------------------------------------------------------------


     total cpu time spent up to now is     1578.0 secs

     total energy              =   -1617.45209534 Ry
     Harris-Foulkes estimate   =   -1617.45209642 Ry
     estimated scf accuracy    <       0.00000216 Ry

     iteration # 11     ecut=    50.00 Ry     beta=0.70
     Davidson diagonalization with overlap
     ethr =  9.15E-10,  avg # of iterations =  3.0


     ----------------------------------------------------------------

     Non-local correlation energy =              3.840301099477938

     ----------------------------------------------------------------


     total cpu time spent up to now is     1621.6 secs

     End of self-consistent calculation

          k = 0.0000 0.0000 0.0000 ( 12355 PWs)   bands (ev):

   -48.7339 -48.7336 -48.5238 -48.5238 -21.6186 -21.5976 -20.6708 -20.6688
   -20.6491 -20.6443 -20.6405 -20.6207 -20.4691 -20.4691 -20.4507 -20.4504
   -20.4341 -20.4330 -19.2994 -19.2210 -18.9520 -18.7783 -18.7526 -18.7377
   -18.5872 -18.5642 -18.3599 -18.2954 -18.2733 -18.2638 -18.0440 -18.0356
   -17.9845 -17.9154 -14.9183 -14.8823 -12.7614 -12.6811 -12.1177 -12.1144
    -9.6814  -9.6141  -9.5015  -9.4209  -8.5113  -8.4480  -7.1672  -7.0722
    -7.0660  -6.7786  -6.6145  -6.5735  -6.5627  -6.4145  -6.1805  -5.9883
    -5.8103  -5.8014  -5.5609  -5.4331  -5.0728  -5.0648  -4.9285  -4.8487
    -4.7537  -4.7079  -4.5930  -4.4053  -4.0356  -4.0296  -3.9049  -3.8663
    -3.7348  -3.6700  -3.6020  -3.2653  -3.2208  -3.1308  -3.0661  -2.9757
    -2.7535  -2.6364  -2.5441  -2.5129  -2.4530  -2.3928  -2.3481  -2.2502
    -1.9422  -1.8219  -1.7902  -1.7372  -1.6092  -1.4688  -1.3327  -1.3099
    -1.0424  -0.9881  -0.8933  -0.8088  -0.7719  -0.7180  -0.6333  -0.6278
    -0.6022  -0.5945  -0.5550  -0.1870  -0.1322   0.0328   0.1588   0.1949
     0.2464   0.3607   0.9384   1.0421   1.2137   1.3442   3.8677   4.1208
     5.2728   5.3180   5.5590   6.0887   6.3330   6.6151   6.9127   7.1836
     7.6460   7.8137   8.1343   8.1464   8.2645   8.3569   8.4940   8.6272
[...]
     atom    7 type  5   force =    -0.00049951   -0.00066114   -0.00048615
     atom    8 type  5   force =     0.00049917    0.00066105    0.00048666
     atom    9 type  5   force =     0.00260929   -0.00328035    0.00511311
     atom   10 type  5   force =    -0.00260929    0.00328057   -0.00511358
     atom   11 type  5   force =     0.00138651    0.00010959    0.00035650
     atom   12 type  5   force =    -0.00138650   -0.00010934   -0.00035709
     atom   13 type  4   force =     0.00000000    0.00000000    0.00000000
     atom   14 type  4   force =     0.00000000    0.00000000    0.00000000
     atom   15 type  5   force =    -0.00206928    0.00163736   -0.00086926
     atom   16 type  5   force =     0.00206927   -0.00163764    0.00086993
     atom   17 type  4   force =     0.00000000    0.00000000    0.00000000
     atom   18 type  4   force =     0.00000000    0.00000000    0.00000000
     atom   19 type  5   force =     0.00167177   -0.00348275    0.00283868
     atom   20 type  5   force =    -0.00167172    0.00348289   -0.00283938
     atom   21 type  4   force =     0.00000000    0.00000000    0.00000000
     atom   22 type  4   force =     0.00000000    0.00000000    0.00000000
     atom   23 type  3   force =    -0.01338445    0.01617759   -0.01803591
     atom   24 type  3   force =     0.01338430   -0.01617745    0.01803634
     atom   25 type  3   force =    -0.00847777    0.01404800   -0.02242369
     atom   26 type  3   force =     0.00847786   -0.01404837    0.02242360
     atom   27 type  3   force =    -0.02006554   -0.01206051    0.01496930
     atom   28 type  3   force =     0.02006559    0.01206015   -0.01496945
     atom   29 type  3   force =     0.01589812   -0.01666283   -0.01492202
     atom   30 type  3   force =    -0.01589825    0.01666266    0.01492182
     atom   31 type  3   force =     0.01363553    0.01624468    0.01570768
     atom   32 type  3   force =    -0.01363530   -0.01624487   -0.01570779
     atom   33 type  2   force =    -0.00365937   -0.00060302   -0.00088400
     atom   34 type  2   force =     0.00365967    0.00060562    0.00088525
     atom   35 type  3   force =     0.00653470   -0.01744594    0.01992071
     atom   36 type  3   force =    -0.00653461    0.01744595   -0.01992084
     atom   37 type  4   force =     0.00000000    0.00000000    0.00000000
     atom   38 type  4   force =     0.00000000    0.00000000    0.00000000
     atom   39 type  4   force =     0.00000000    0.00000000    0.00000000
     atom   40 type  4   force =     0.00000000    0.00000000    0.00000000
     atom   41 type  3   force =     0.00459627   -0.02783113   -0.00661447
     atom   42 type  3   force =    -0.00459621    0.02783112    0.00661501
     atom   43 type  4   force =     0.00000000    0.00000000    0.00000000
     atom   44 type  4   force =     0.00000000    0.00000000    0.00000000
     atom   45 type  4   force =     0.00000000    0.00000000    0.00000000
     atom   46 type  4   force =     0.00000000    0.00000000    0.00000000
     atom   47 type  3   force =     0.01184794   -0.00017085   -0.02406057
     atom   48 type  3   force =    -0.01184801    0.00017073    0.02406048
     atom   49 type  4   force =     0.00000000    0.00000000    0.00000000
     atom   50 type  4   force =     0.00000000    0.00000000    0.00000000
     atom   51 type  4   force =     0.00000000    0.00000000    0.00000000
     atom   52 type  4   force =     0.00000000    0.00000000    0.00000000
     atom   53 type  1   force =     0.00000000    0.00000000    0.00000000
     atom   54 type  1   force =     0.00000000    0.00000000    0.00000000
     atom   55 type  1   force =     0.00000000    0.00000000    0.00000000
     atom   56 type  1   force =     0.00000000    0.00000000    0.00000000
     atom   57 type  3   force =    -0.01713918   -0.02333436   -0.00700342
     atom   58 type  3   force =     0.01713912    0.02333484    0.00700392
     atom   59 type  4   force =     0.00000000    0.00000000    0.00000000
     atom   60 type  4   force =     0.00000000    0.00000000    0.00000000
     atom   61 type  4   force =     0.00000000    0.00000000    0.00000000
     atom   62 type  4   force =     0.00000000    0.00000000    0.00000000
     The Hubbard contrib.    to forces
     atom    1 type  5   force =     0.00000000    0.00000000    0.00000000
     atom    2 type  5   force =     0.00000000    0.00000000    0.00000000
     atom    3 type  5   force =     0.00000000    0.00000000    0.00000000
     atom    4 type  5   force =     0.00000000    0.00000000    0.00000000
     atom    5 type  4   force =     0.00000000    0.00000000    0.00000000
     atom    6 type  4   force =     0.00000000    0.00000000    0.00000000
     atom    7 type  5   force =     0.00000000    0.00000000    0.00000000
     atom    8 type  5   force =     0.00000000    0.00000000    0.00000000
     atom    9 type  5   force =     0.00000000    0.00000000    0.00000000
     atom   10 type  5   force =     0.00000000    0.00000000    0.00000000
     atom   11 type  5   force =     0.00000000    0.00000000    0.00000000
     atom   12 type  5   force =     0.00000000    0.00000000    0.00000000
     atom   13 type  4   force =     0.00000000    0.00000000    0.00000000
     atom   14 type  4   force =     0.00000000    0.00000000    0.00000000
     atom   15 type  5   force =     0.00000000    0.00000000    0.00000000
     atom   16 type  5   force =     0.00000000    0.00000000    0.00000000
     atom   17 type  4   force =     0.00000000    0.00000000    0.00000000
     atom   18 type  4   force =     0.00000000    0.00000000    0.00000000
     atom   19 type  5   force =     0.00000000    0.00000000    0.00000000
     atom   20 type  5   force =     0.00000000    0.00000000    0.00000000
     atom   21 type  4   force =     0.00000000    0.00000000    0.00000000
     atom   22 type  4   force =     0.00000000    0.00000000    0.00000000
     atom   23 type  3   force =     0.00000000    0.00000000    0.00000000
     atom   24 type  3   force =     0.00000000    0.00000000    0.00000000
     atom   25 type  3   force =     0.00000000    0.00000000    0.00000000
     atom   26 type  3   force =     0.00000000    0.00000000    0.00000000
     atom   27 type  3   force =     0.00000000    0.00000000    0.00000000
     atom   28 type  3   force =     0.00000000    0.00000000    0.00000000
     atom   29 type  3   force =     0.00000000    0.00000000    0.00000000
     atom   30 type  3   force =     0.00000000    0.00000000    0.00000000
     atom   31 type  3   force =     0.00000000    0.00000000    0.00000000
     atom   32 type  3   force =     0.00000000    0.00000000    0.00000000
     atom   33 type  2   force =     0.00000000    0.00000000    0.00000000
     atom   34 type  2   force =     0.00000000    0.00000000    0.00000000
     atom   35 type  3   force =     0.00000000    0.00000000    0.00000000
     atom   36 type  3   force =     0.00000000    0.00000000    0.00000000
     atom   37 type  4   force =     0.00000000    0.00000000    0.00000000
     atom   38 type  4   force =     0.00000000    0.00000000    0.00000000
     atom   39 type  4   force =     0.00000000    0.00000000    0.00000000
     atom   40 type  4   force =     0.00000000    0.00000000    0.00000000
     atom   41 type  3   force =     0.00000000    0.00000000    0.00000000
     atom   42 type  3   force =     0.00000000    0.00000000    0.00000000
     atom   43 type  4   force =     0.00000000    0.00000000    0.00000000
     atom   44 type  4   force =     0.00000000    0.00000000    0.00000000
     atom   45 type  4   force =     0.00000000    0.00000000    0.00000000
     atom   46 type  4   force =     0.00000000    0.00000000    0.00000000
     atom   47 type  3   force =     0.00000000    0.00000000    0.00000000
     atom   48 type  3   force =     0.00000000    0.00000000    0.00000000
     atom   49 type  4   force =     0.00000000    0.00000000    0.00000000
     atom   50 type  4   force =     0.00000000    0.00000000    0.00000000
     atom   51 type  4   force =     0.00000000    0.00000000    0.00000000
     atom   52 type  4   force =     0.00000000    0.00000000    0.00000000
     atom   53 type  1   force =     0.00000000    0.00000000    0.00000000
     atom   54 type  1   force =     0.00000000    0.00000000    0.00000000
     atom   55 type  1   force =     0.00000000    0.00000000    0.00000000
     atom   56 type  1   force =     0.00000000    0.00000000    0.00000000
     atom   57 type  3   force =     0.00000000    0.00000000    0.00000000
     atom   58 type  3   force =     0.00000000    0.00000000    0.00000000
     atom   59 type  4   force =     0.00000000    0.00000000    0.00000000
     atom   60 type  4   force =     0.00000000    0.00000000    0.00000000
     atom   61 type  4   force =     0.00000000    0.00000000    0.00000000
     atom   62 type  4   force =     0.00000000    0.00000000    0.00000000
     The SCF correction term to forces
     atom    1 type  5   force =     0.00000824    0.00000146    0.00001019
     atom    2 type  5   force =    -0.00000815   -0.00000104   -0.00001049
     atom    3 type  5   force =    -0.00000545    0.00000016    0.00001583
     atom    4 type  5   force =     0.00000577    0.00000069   -0.00001732
     atom    5 type  4   force =    -0.00000118    0.00000039    0.00000162
     atom    6 type  4   force =     0.00000131   -0.00000025   -0.00000186
     atom    7 type  5   force =     0.00001244   -0.00000952    0.00000140
     atom    8 type  5   force =    -0.00001281    0.00001048   -0.00000254
     atom    9 type  5   force =     0.00001766   -0.00001573    0.00000803
     atom   10 type  5   force =    -0.00001827    0.00001663   -0.00000920
     atom   11 type  5   force =     0.00000331   -0.00000541    0.00001757
     atom   12 type  5   force =    -0.00000363    0.00000637   -0.00001880
     atom   13 type  4   force =    -0.00000240   -0.00000002    0.00000413
     atom   14 type  4   force =     0.00000249    0.00000011   -0.00000433
     atom   15 type  5   force =     0.00002003   -0.00000796    0.00000705
     atom   16 type  5   force =    -0.00002085    0.00000892   -0.00000724
     atom   17 type  4   force =     0.00000039    0.00000096    0.00000094
     atom   18 type  4   force =    -0.00000052   -0.00000089   -0.00000075
     atom   19 type  5   force =     0.00000500   -0.00001629    0.00001463
     atom   20 type  5   force =    -0.00000522    0.00001659   -0.00001485
     atom   21 type  4   force =    -0.00000160   -0.00000142    0.00000049
     atom   22 type  4   force =     0.00000160    0.00000155   -0.00000059
     atom   23 type  3   force =    -0.00000448   -0.00000866    0.00000155
     atom   24 type  3   force =     0.00000466    0.00000834   -0.00000198
     atom   25 type  3   force =     0.00000691   -0.00002501    0.00001253
     atom   26 type  3   force =    -0.00000720    0.00002466   -0.00001220
     atom   27 type  3   force =     0.00001502    0.00002877   -0.00001766
     atom   28 type  3   force =    -0.00001526   -0.00002962    0.00001928
     atom   29 type  3   force =    -0.00000283    0.00001980   -0.00000374
     atom   30 type  3   force =     0.00000333   -0.00002066    0.00000425
     atom   31 type  3   force =     0.00000032    0.00002829   -0.00000451
     atom   32 type  3   force =     0.00000022   -0.00002811    0.00000602
     atom   33 type  2   force =     0.00001406    0.00004393   -0.00001622
     atom   34 type  2   force =    -0.00001368   -0.00004467    0.00001769
     atom   35 type  3   force =    -0.00000476    0.00001531   -0.00001400
     atom   36 type  3   force =     0.00000471   -0.00001559    0.00001462
     atom   37 type  4   force =    -0.00000139    0.00000312   -0.00000247
     atom   38 type  4   force =     0.00000137   -0.00000314    0.00000259
     atom   39 type  4   force =    -0.00000057    0.00000166   -0.00000206
     atom   40 type  4   force =     0.00000056   -0.00000169    0.00000214
     atom   41 type  3   force =     0.00000504    0.00001066   -0.00002135
     atom   42 type  3   force =    -0.00000509   -0.00001148    0.00002139
     atom   43 type  4   force =    -0.00000002    0.00000090   -0.00000324
     atom   44 type  4   force =     0.00000001   -0.00000098    0.00000320
     atom   45 type  4   force =    -0.00000083    0.00000185   -0.00000211
     atom   46 type  4   force =     0.00000083   -0.00000198    0.00000208
     atom   47 type  3   force =     0.00000315    0.00001739   -0.00002109
     atom   48 type  3   force =    -0.00000311   -0.00001869    0.00002070
     atom   49 type  4   force =     0.00000111    0.00000140   -0.00000133
     atom   50 type  4   force =    -0.00000115   -0.00000165    0.00000130
     atom   51 type  4   force =     0.00000344   -0.00000106   -0.00000333
     atom   52 type  4   force =    -0.00000333    0.00000083    0.00000320
     atom   53 type  1   force =     0.00001239    0.00001362    0.00000475
     atom   54 type  1   force =    -0.00001249   -0.00001419   -0.00000367
     atom   55 type  1   force =    -0.00000891    0.00000177   -0.00002364
     atom   56 type  1   force =     0.00000922   -0.00000265    0.00002460
     atom   57 type  3   force =    -0.00000252    0.00000912   -0.00000396
     atom   58 type  3   force =     0.00000264   -0.00000847    0.00000449
     atom   59 type  4   force =    -0.00000088    0.00000125   -0.00000085
     atom   60 type  4   force =     0.00000090   -0.00000114    0.00000094
     atom   61 type  4   force =     0.00000037    0.00000144   -0.00000009
     atom   62 type  4   force =    -0.00000034   -0.00000135    0.00000020

     Total force =     0.004166     Total SCF correction =     0.000155


     entering subroutine stress ...



     ----------------------------------------------------------------

     Non-local correlation energy =              3.839579720804958

     ----------------------------------------------------------------

          VDW GRADIENT stress
             0.00005062   0.00000000   0.00000000
             0.00000248   0.00005171   0.00000000
             0.00000112   0.00000158   0.00004966

          VDW KERNEL stress
            -0.00031959   0.00000000   0.00000000
            -0.00004337  -0.00034386   0.00000000
            -0.00001352  -0.00003344  -0.00029698

          VDW ALL stress
             0.00026897   0.00004089   0.00001241
             0.00004089   0.00029215   0.00003186
             0.00001241   0.00003186   0.00024732

          total   stress  (Ry/bohr**3)                   (kbar)     P=    0.89
  -0.00000122  -0.00000413   0.00000070         -0.18     -0.61      0.10
  -0.00000413   0.00001220   0.00000089         -0.61      1.80      0.13
   0.00000070   0.00000089   0.00000721          0.10      0.13      1.06

     kinetic stress (kbar)  12547.56    110.63     14.84
                              110.63  12450.35    135.00
                               14.84    135.00  12597.05

     local   stress (kbar) -12537.74   4123.35    518.58
                             4123.35  -4903.35   1948.54
                              518.58   1948.54 -13740.33

     nonloc. stress (kbar)   1730.94    -11.20    -27.47
                              -11.20   1703.36     -4.55
                              -27.47     -4.55   1742.95

     hartree stress (kbar)   7038.50  -1351.85    -69.23
                            -1351.85   3610.18   -438.94
                              -69.23   -438.94   7259.24

     exc-cor stress (kbar)  -2118.75    -27.38    -10.99
                              -27.38  -2133.95    -17.56
                              -10.99    -17.56  -2109.59

     corecor stress (kbar)   -995.44      4.36      2.96
                                4.36   -990.99      2.07
                                2.96      2.07   -997.91

     ewald   stress (kbar)  -5704.82  -2854.53   -430.41
                            -2854.53  -9776.79  -1629.12
                             -430.41  -1629.12  -4786.73

     hubbard stress (kbar)      0.00      0.00      0.00
                                0.00      0.00      0.00
                                0.00      0.00      0.00

     london  stress (kbar)      0.00      0.00      0.00
                                0.00      0.00      0.00
                                0.00      0.00      0.00

     dft-nl  stress (kbar)     39.57      6.01      1.82
                                6.01     42.98      4.69
                                1.82      4.69     36.38



     Writing output data file i2t0429_ns_merc.xyz.save
 
     init_run     :    151.95s CPU    212.50s WALL (       2 calls)
     electrons    :  13139.53s CPU  25660.25s WALL (      46 calls)
     update_pot   :   3229.23s CPU   6072.94s WALL (      44 calls)
     forces       :   2595.63s CPU   5019.95s WALL (      46 calls)
     stress       :   4166.24s CPU   8133.89s WALL (      46 calls)

     Called by init_run:
     wfcinit      :      5.79s CPU      8.05s WALL (       2 calls)
     potinit      :     66.39s CPU     92.14s WALL (       2 calls)

     Called by electrons:
     c_bands      :   3174.72s CPU   5681.28s WALL (     433 calls)
     sum_band     :   3817.59s CPU   7453.82s WALL (     433 calls)
     v_of_rho     :   3802.00s CPU   8105.40s WALL (     479 calls)
     v_h          :     23.92s CPU     53.66s WALL (     479 calls)
     v_xc         :   4471.27s CPU   9592.32s WALL (     571 calls)
     newd         :   2022.59s CPU   3781.95s WALL (     479 calls)
     mix_rho      :    263.93s CPU    496.91s WALL (     433 calls)
     vdW_energy   :   1383.26s CPU   3301.58s WALL (     571 calls)
     vdW_ffts     :   1079.27s CPU   2154.98s WALL (    1234 calls)
     vdW_v        :    765.33s CPU   1518.75s WALL (     571 calls)

     Called by c_bands:
     init_us_2    :     18.84s CPU     38.33s WALL (     868 calls)
     regterg      :   3139.79s CPU   5619.39s WALL (     433 calls)

     Called by sum_band:
     sum_band:bec :      0.51s CPU      0.76s WALL (     433 calls)
     addusdens    :   3260.02s CPU   6428.00s WALL (     433 calls)

     Called by *egterg:
     h_psi        :   2128.35s CPU   3837.33s WALL (    2218 calls)
     s_psi        :    221.15s CPU    371.91s WALL (    2218 calls)
     g_psi        :     23.11s CPU     49.86s WALL (    1783 calls)
     rdiaghg      :     82.26s CPU    166.23s WALL (    2172 calls)
     regterg:over :    288.90s CPU    486.41s WALL (    1783 calls)
     regterg:upda :    204.35s CPU    349.68s WALL (    1783 calls)
     regterg:last :    114.19s CPU    192.90s WALL (     476 calls)

     Called by h_psi:
     h_psi:vloc   :   1681.36s CPU   3084.08s WALL (    2218 calls)
     h_psi:vnl    :    441.29s CPU    741.92s WALL (    2218 calls)
     add_vuspsi   :    222.49s CPU    374.33s WALL (    2218 calls)

     General routines
     calbec       :    329.13s CPU    552.86s WALL (    2881 calls)
     fft          :   1698.52s CPU   3409.28s WALL (   39248 calls)
     ffts         :      8.26s CPU     16.46s WALL (     912 calls)
     fftw         :   1545.91s CPU   2838.03s WALL (  212195 calls)
     interpolate  :     53.82s CPU    115.92s WALL (     912 calls)
     davcio       :      0.76s CPU      6.18s WALL (     433 calls)
 
     Parallel routines
 
     PAW routines
     PAW_pot      :    638.41s CPU   1200.40s WALL (     479 calls)
     PAW_ddot     :    218.01s CPU    409.57s WALL (    6529 calls)
     PAW_symme    :      0.15s CPU      0.27s WALL (     868 calls)
 
     PWSCF        :     6h31m CPU       12h38m WALL

 
   This run was terminated on:   5:45: 0  30Aug2011            

=------------------------------------------------------------------------------=
   JOB DONE.
=------------------------------------------------------------------------------=
