/home/crystal/CRYSTAL17/public/svn1196_260218_pub1_0_2/i14o1/bin/Linux-ifort_openmpi_i64_clut/std//Pcrystal
/data/civalleri/803868
script started on node4
TEST11 - MGO BULK
CRYSTAL
0 0 0
 225
4.21
2
 12 0.    0.    0.
  8 0.5   0.5   0.5
SLABCUT
1 0 0
1 5
END
12  3
 0  0  8  2.  1.
 68371.875      0.0002226
  9699.34009    0.0018982
  2041.176786   0.0110451
   529.862906   0.0500627
   159.186000   0.169123
    54.6848     0.367031
    21.2357     0.400410
     8.74604    0.14987
0 1 6 8. 1.
156.795  -0.00624  0.00772
31.0339  -0.07882  0.06427
9.6453   -0.07992  0.2104
3.7109    0.29063  0.34314
1.61164   0.57164  0.3735
0.64294   0.30664  0.23286
0 1 1 0. 1.
0.4       1.       1.
8 3
0 0 8 2. 1.
4000.    0.00144
1355.58  0.00764
248.545  0.05370
69.5339  0.16818
23.8868  0.36039
9.27593  0.38612
3.82034  0.14712
1.23514  0.07105
0 1 5 8. 1.
52.1878 -0.00873  0.00922
10.3293 -0.08979  0.07068
3.21034 -0.04079  0.20433
1.23514  0.37666  0.34958
0.536420 0.42248  0.27774
0 1 1 0. 1.
0.210000 1.  1.
99   0
END
SHRINK
8 8
FMIXING
30
PPAN
END
Sat Sep  1 11:16:26 CEST 2018
 PROCESS            0  OF            8  WORKING

         
 *******************************************************************************
 *                                                                             *
 *                               CRYSTAL17                                     *
 PROCESS            2  OF            8  WORKING
 *                      public : 1.0.2 - March 1st, 2018                       *
 *                       HTTP://WWW.CRYSTAL.UNITO.IT                           *
 *                                                                             *
 *                              MAIN AUTHORS                                   *
 *                                                                             *
 *  R. DOVESI(1,11), V.R. SAUNDERS(2), C. ROETTI(1,11), R. ORLANDO(1,11),      *
 *  C.M. ZICOVICH-WILSON(1,3), F. PASCALE(4), B. CIVALLERI(1,11),              *
 *  K. DOLL(5), N.M. HARRISON(2,6), I.J. BUSH(7), Ph. D'ARCO(8),               *
 *  M. LLUNELL(9), M. CAUSA'(10), Y. NOEL(8), L. MASCHIO(1,11), A. ERBA(1,11)  *
 *  M. RE'RAT(14), S. CASASSA(1,11)                                            *
 *                                                                             *
 *        CONTRIBUTIONS TO THE CODE HAVE ALSO BEEN GIVEN BY                    *
 *                                                                             *
 *  M. FERRABONE(1,11), M. DE LA PIERRE(1,11), M. FERRERO(1,11),               *
 *  J. BAIMA(1,11), E. ALBANESE(1,11), M.F. PEINTINGER(12), R. BAST(13),       *
 *  B. KIRTMAN(15), V. LACIVITA(1,11), R. DEMICHELIS(1,16)                     *
 *  G. BRANDEBURG(17), S. SALUSTRO(1,11), G. SANSONE(1,11)                     *
 *  M.T. RUGGIERO(18)                                                          *
 *                                                                             *
 * (1) THEORETICAL CHEMISTRY GROUP - UNIVERSITA' DI TORINO - TORINO (ITALY)    *
 * (2) COMPUTATIONAL SCIENCE & ENGINEERING DEPARTMENT - STFC DARESBURY (UK)    *
 * (3) UNIVERSIDAD AUTONOMA DEL ESTADO DE MORELOS - CUERNAVACA (MEXICO)        *
 * (4) UNIVERSITE' DE LORRAINE - NANCY (FRANCE)                                *
 * (5) UNIVERSITAET STUTTGART- STUTTGART (GERMANY)                             *
 * (6) IMPERIAL COLLEGE - LONDON (UK)                                          *
 * (7) OXFORD E-RESEARCH CENTRE - OXFORD (UK)                                  *
 * (8) UPMC - SORBONNE UNIVERSITES - PARIS (FRANCE)                            *
 * (9) UNIVERSIDAD DE BARCELONA - BARCELONA (SPAIN)                            *
 *(10) UNIVERSITA' DI NAPOLI "FEDERICO II" - NAPOLI (ITALY)                    *
 *(11) NIS - NANOSTRUCTURED INTERFACES AND SURFACES - TORINO (ITALY)           *
 *(12) MPI FUER CHEMISCHE ENERGIEKONVERSION - MUELHEIM AN DER RUHR (GERMANY)   *
 *(13) UNIVERSITY OF TROMSO - TROMSO (NORWAY)                                  *
 *(14) UNIVERSITE' DE PAU ET DES PAYS DE L'ADOUR - PAU (FRANCE)                *
 *(15) UNIVERSITY OF CALIFORNIA SANTA BARBARA - SANTA BARBARA (USA)            *
 *(16) CURTIN UNIVERSITY - PERTH (AUSTRALIA)                                   *
 *(17) UNIVERSITY COLLEGE LONDON - LONDON (UK)                                 *
 *(18) CAMBRIDGE UNIVERSITY - CAMBRIDGE (UK)                                   *
 *                                                                             *
 *******************************************************************************
 EEEEEEEEEE STARTING  DATE 01 09 2018 TIME 11:16:27.2
 TEST11 - MGO BULK                                                               
 PROCESS            3  OF            8  WORKING
 PROCESS            7  OF            8  WORKING

 CRYSTAL CALCULATION
 (INPUT ACCORDING TO THE INTERNATIONAL TABLES FOR X-RAY CRYSTALLOGRAPHY)
 CRYSTAL FAMILY                       :  CUBIC       
 CRYSTAL CLASS  (GROTH - 1921)        :  CUBIC HEXAKISOCTAHEDRAL              

 SPACE GROUP (CENTROSYMMETRIC)        :  F M 3 M         

 LATTICE PARAMETERS  (ANGSTROMS AND DEGREES) - CONVENTIONAL CELL
        A           B           C        ALPHA        BETA       GAMMA
     4.21000     4.21000     4.21000    90.00000    90.00000    90.00000


 NUMBER OF IRREDUCIBLE ATOMS IN THE CONVENTIONAL CELL:    2

 INPUT COORDINATES

 ATOM AT. N.              COORDINATES
   1  12     0.000000000000E+00  0.000000000000E+00  0.000000000000E+00
   2   8     5.000000000000E-01  5.000000000000E-01  5.000000000000E-01

 *******************************************************************************

 << INFORMATION >>: FROM NOW ON, ALL COORDINATES REFER TO THE PRIMITIVE CELL

 *******************************************************************************

 LATTICE PARAMETERS  (ANGSTROMS AND DEGREES) - PRIMITIVE CELL
 PROCESS            4  OF            8  WORKING
       A          B          C        ALPHA      BETA     GAMMA        VOLUME
    2.97692    2.97692    2.97692    60.00000  60.00000  60.00000     18.654615
 PROCESS            5  OF            8  WORKING
 PROCESS            6  OF            8  WORKING
 PROCESS            1  OF            8  WORKING

 COORDINATES OF THE EQUIVALENT ATOMS (FRACTIONAL UNITS)

 N. ATOM EQUIV AT. N.          X                  Y                  Z

   1   1   1   12 MG    0.00000000000E+00  0.00000000000E+00  0.00000000000E+00

   2   2   1    8 O    -5.00000000000E-01 -5.00000000000E-01 -5.00000000000E-01

 NUMBER OF SYMMETRY OPERATORS         :   48
 *******************************************************************************
 * GEOMETRY EDITING - INPUT COORDINATES ARE GIVEN IN ANGSTROM         
 *******************************************************************************

 GEOMETRY NOW FULLY CONSISTENT WITH THE GROUP


 *******************************************************************************
  * CELL ROTATION 
 *******************************************************************************

 DIRECT-LATTICE FUNDAMENTAL VECTORS 
             X         Y         Z
 A1       0.0000    2.1050    2.1050
 A2       2.1050    0.0000    2.1050
 A3       2.1050    2.1050    0.0000
 **********************************************************************
 *            DEFINITION OF THE NEW LATTICE VECTORS                   *
 *            TWO OF WHICH BELONG TO THE SELECTED PLANE               *
 **********************************************************************

                       PLANE INDICES =   1   0   0
                   PRIMITIVE INDICES =   0   1   1

 NEW FUNDAMENTAL DIRECT-LATTICE VECTORS B1,B2,B3
 B1=      1 A1    0 A2    0 A3 
 B2=      0 A1   -1 A2    1 A3 
 B3=      1 A1    0 A2   -1 A3 

 LATTICE PARAMETERS  (ANGSTROM  AND DEGREES)
        A           B           C        ALPHA        BETA       GAMMA
     2.97692     2.97692     2.97692   120.00000    60.00000    90.00000

 NUMBER OF PRIMITIVE CELLS CONTAINED IN THE NEW FUNDAMENTAL CELL :  1

 *** THE CARTESIAN FRAME IS ROTATED SO THAT
     THE SELECTED PLANE IS IN THE X-Y PLANE

 NEW FUNDAMENTAL DIRECT-LATTICE VECTORS B1,B2,B3
             X         Y         Z
 B1       2.9769    0.0000    0.0000
 B2       0.0000    2.9769    0.0000
 B3       1.4885   -1.4885    2.1050

 VOLUME OF THE 3D CELL      18.655
 AREA OF THE 2D CELL         8.862
 B3 MODULUS                  2.977
 B3 Z PROJECTION             2.105
 B3 X-Y PROJECTION           2.105

 UNIT CELL ATOM COORDINATES :
 LAB AT.NO.       CARTESIAN (ANG)               CRYSTALLOGRAPHIC
   1  12       0.000     0.000     0.000     0.000000   0.000000   0.000000
   2   8       1.488    -1.488     0.000     0.500000  -0.500000   0.000000
   1  12       0.000     0.000     0.000     0.000000   0.000000   0.000000
   2   8       1.488     1.488     0.000     0.500000   0.500000   0.000000

 ATOMS CLASSIFIED ACCORDING TO THE Z COORDINATE :
  LAYER   1 Z=   0.0000; LABEL AT.NO.              X,Y,Z (ANG.)
                           1    12        0.00000     0.00000     0.00000
                           2     8        1.48846     1.48846     0.00000

 *************************** CELL ROTATION COMPLETE ***************************


 *******************************************************************************
 * TWO DIMENSIONAL SLAB PARALLEL TO THE SELECTED PLANE
 *******************************************************************************
         SURFACE LAYER NO.  1
         TOTAL NUMBER OF LAYERS:   5

 ORIGIN SHIFT TO MAXIMIZE USE OF SYMMETRY=    -2.000

 NUMBER OF SYMMOPS= 16

 COORDINATES OF THE ATOMS BELONGING TO THE SLAB
 LAB AT.N.     CARTESIAN (ANG)        FRACTIONAL (3D)      FRAC (2D)     Z(ANG)
   1  12 -0.00000  0.00000  4.21000  0.000  0.000  2.000 -0.000  0.000   4.21000
   2   8  1.48846 -1.48846  4.21000  0.500  0.500  2.000  0.500 -0.500   4.21000
   3  12  1.48846 -1.48846  2.10500  0.000 -0.000  1.000  0.500 -0.500   2.10500
   4   8 -0.00000  0.00000  2.10500  0.500  0.500  1.000 -0.000  0.000   2.10500
   5  12  0.00000 -0.00000  0.00000  0.000 -0.000  0.000  0.000 -0.000   0.00000
   6   8 -1.48846  1.48846  0.00000  0.500  0.500  0.000 -0.500  0.500   0.00000
   7  12 -1.48846  1.48846 -2.10500  0.000 -0.000 -1.000 -0.500  0.500  -2.10500
   8   8  0.00000 -0.00000 -2.10500  0.500  0.500 -1.000  0.000 -0.000  -2.10500
   9  12  0.00000 -0.00000 -4.21000  0.000 -0.000 -2.000  0.000 -0.000  -4.21000
  10   8 -1.48846  1.48846 -4.21000  0.500  0.500 -2.000 -0.500  0.500  -4.21000


 ******************************* SLAB GENERATED *******************************

 GCALCO - MAX INDICES DIRECT LATTICE VECTOR    83    83     0
 NO.OF VECTORS CREATED 6999 STARS  686 RMAX   265.35726 BOHR

 GEOMETRY FOR WAVE FUNCTION - DIMENSIONALITY OF THE SYSTEM    2
 (NON PERIODIC DIRECTION: LATTICE PARAMETER FORMALLY SET TO 500)
 *******************************************************************************
 LATTICE PARAMETERS (ANGSTROMS AND DEGREES) - BOHR = 0.5291772083 ANGSTROM
 PRIMITIVE CELL
         A              B              C           ALPHA      BETA       GAMMA 
     2.97691955     2.97691955   500.00000000    90.000000  90.000000  90.000000
 *******************************************************************************
 ATOMS IN THE ASYMMETRIC UNIT    6 - ATOMS IN THE UNIT CELL:   10
     ATOM                 X/A                 Y/B             Z(ANGSTROM)
 *******************************************************************************
      1 T  12 MG   -2.220446049250E-16  4.440892098501E-16  4.210000000000E+00
      2 T   8 O     5.000000000000E-01 -5.000000000000E-01  4.210000000000E+00
      3 T  12 MG    5.000000000000E-01 -5.000000000000E-01  2.105000000000E+00
      4 T   8 O    -1.110223024625E-16  1.491774307538E-16  2.105000000000E+00
      5 T  12 MG    0.000000000000E+00 -1.110223024625E-16  0.000000000000E+00
      6 T   8 O     5.000000000000E-01 -5.000000000000E-01  0.000000000000E+00
      7 F  12 MG    5.000000000000E-01 -5.000000000000E-01 -2.105000000000E+00
      8 F   8 O     1.491774307538E-16 -7.771561172376E-16 -2.105000000000E+00
      9 F  12 MG    2.220446049250E-16 -5.551115123126E-16 -4.210000000000E+00
     10 F   8 O     5.000000000000E-01 -5.000000000000E-01 -4.210000000000E+00

 T = ATOM BELONGING TO THE ASYMMETRIC UNIT

 ****   16 SYMMOPS - TRANSLATORS IN FRACTIONAL UNITS
 **** MATRICES AND TRANSLATORS IN THE CRYSTALLOGRAPHIC REFERENCE FRAME
   V INV                    ROTATION MATRICES                   TRANSLATORS
   1   1  1.00  0.00  0.00  0.00  1.00  0.00  0.00  0.00  1.00  0.00  0.00  0.00
   2   2  0.00 -1.00  0.00 -1.00  0.00 -0.00  0.00  0.00 -1.00  0.00 -0.00  0.00
   3   3 -1.00  0.00 -0.00  0.00 -1.00  0.00  0.00  0.00  1.00 -0.00  0.00  0.00
   4   4  0.00  1.00  0.00  1.00  0.00 -0.00  0.00  0.00 -1.00  0.00  0.00  0.00
   5   5 -1.00  0.00  0.00  0.00  1.00 -0.00  0.00  0.00 -1.00  0.00 -0.00  0.00
   6   7  0.00 -1.00  0.00  1.00  0.00  0.00  0.00  0.00  1.00  0.00  0.00  0.00
   7   6  0.00  1.00 -0.00 -1.00  0.00  0.00  0.00  0.00  1.00 -0.00  0.00  0.00
   8   8  1.00  0.00  0.00  0.00 -1.00  0.00  0.00  0.00 -1.00  0.00  0.00  0.00
   9   9 -1.00  0.00  0.00  0.00 -1.00  0.00  0.00  0.00 -1.00  0.00  0.00  0.00
  10  10  0.00  1.00 -0.00  1.00  0.00  0.00  0.00  0.00  1.00 -0.00  0.00  0.00
  11  11  1.00  0.00  0.00  0.00  1.00 -0.00  0.00  0.00 -1.00  0.00 -0.00  0.00
  12  12  0.00 -1.00  0.00 -1.00  0.00  0.00  0.00  0.00  1.00  0.00  0.00  0.00
  13  13  1.00  0.00 -0.00  0.00 -1.00  0.00  0.00  0.00  1.00  0.00  0.00  0.00
  14  15  0.00  1.00  0.00 -1.00  0.00 -0.00  0.00  0.00 -1.00  0.00 -0.00  0.00
  15  14  0.00 -1.00  0.00  1.00  0.00 -0.00  0.00  0.00 -1.00  0.00  0.00  0.00
  16  16 -1.00  0.00 -0.00  0.00  1.00  0.00  0.00  0.00  1.00 -0.00  0.00  0.00

 DIRECT LATTICE VECTORS CARTESIAN COMPONENTS (ANGSTROM)
          X                    Y                    Z
   0.297691954880E+01   0.000000000000E+00   0.000000000000E+00
   0.000000000000E+00   0.297691954880E+01   0.000000000000E+00
   0.000000000000E+00   0.000000000000E+00   0.500000000000E+03


 CARTESIAN COORDINATES - PRIMITIVE CELL
 *******************************************************************************
 *      ATOM          X(ANGSTROM)         Y(ANGSTROM)         Z(ANGSTROM)
 *******************************************************************************
    1    12 MG   -6.610089251059E-16  1.322017850212E-15  4.210000000000E+00
    2     8 O     1.488459774398E+00  1.488459774398E+00  4.210000000000E+00
    3    12 MG    1.488459774398E+00  1.488459774398E+00  2.105000000000E+00
    4     8 O    -3.305044625529E-16  4.440892098501E-16  2.105000000000E+00
    5    12 MG    0.000000000000E+00 -3.305044625529E-16  0.000000000000E+00
    6     8 O     1.488459774398E+00  1.488459774398E+00  0.000000000000E+00
    7    12 MG    1.488459774398E+00  1.488459774398E+00 -2.105000000000E+00
    8     8 O     4.440892098501E-16 -2.313531237871E-15 -2.105000000000E+00
    9    12 MG    6.610089251059E-16 -1.652522312765E-15 -4.210000000000E+00
   10     8 O     1.488459774398E+00  1.488459774398E+00 -4.210000000000E+00

 *******************************************************************************
 LOCAL ATOMIC FUNCTIONS BASIS SET
 *******************************************************************************
   ATOM   X(AU)   Y(AU)   Z(AU)  N. TYPE  EXPONENT  S COEF   P COEF   D/F/G COEF
 *******************************************************************************
   1 MG  -0.000   0.000   7.956
                                  1 S  
                                         6.837E+04 2.226E-04 0.000E+00 0.000E+00
                                         9.699E+03 1.898E-03 0.000E+00 0.000E+00
                                         2.041E+03 1.105E-02 0.000E+00 0.000E+00
                                         5.299E+02 5.006E-02 0.000E+00 0.000E+00
                                         1.592E+02 1.691E-01 0.000E+00 0.000E+00
                                         5.468E+01 3.670E-01 0.000E+00 0.000E+00
                                         2.124E+01 4.004E-01 0.000E+00 0.000E+00
                                         8.746E+00 1.499E-01 0.000E+00 0.000E+00
                           2-     5 SP 
                                         1.568E+02-6.240E-03 7.720E-03 0.000E+00
                                         3.103E+01-7.882E-02 6.427E-02 0.000E+00
                                         9.645E+00-7.992E-02 2.104E-01 0.000E+00
                                         3.711E+00 2.906E-01 3.431E-01 0.000E+00
                                         1.612E+00 5.716E-01 3.735E-01 0.000E+00
                                         6.429E-01 3.066E-01 2.329E-01 0.000E+00
                           6-     9 SP 
                                         4.000E-01 1.000E+00 1.000E+00 0.000E+00
   2 O    2.813   2.813   7.956
                                 10 S  
                                         4.000E+03 1.440E-03 0.000E+00 0.000E+00
                                         1.356E+03 7.640E-03 0.000E+00 0.000E+00
                                         2.485E+02 5.370E-02 0.000E+00 0.000E+00
                                         6.953E+01 1.682E-01 0.000E+00 0.000E+00
                                         2.389E+01 3.604E-01 0.000E+00 0.000E+00
                                         9.276E+00 3.861E-01 0.000E+00 0.000E+00
                                         3.820E+00 1.471E-01 0.000E+00 0.000E+00
                                         1.235E+00 7.105E-02 0.000E+00 0.000E+00
                          11-    14 SP 
                                         5.219E+01-8.730E-03 9.220E-03 0.000E+00
                                         1.033E+01-8.979E-02 7.068E-02 0.000E+00
                                         3.210E+00-4.079E-02 2.043E-01 0.000E+00
                                         1.235E+00 3.767E-01 3.496E-01 0.000E+00
                                         5.364E-01 4.225E-01 2.777E-01 0.000E+00
                          15-    18 SP 
                                         2.100E-01 1.000E+00 1.000E+00 0.000E+00
   3 MG   2.813   2.813   3.978
   4 O   -0.000   0.000   3.978
   5 MG   0.000  -0.000   0.000
   6 O    2.813   2.813   0.000
   7 MG   2.813   2.813  -3.978
   8 O    0.000  -0.000  -3.978
   9 MG   0.000  -0.000  -7.956
  10 O    2.813   2.813  -7.956
 INFORMATION **** SET_MPP **** PCRYSTAL CALCULATION
 INFORMATION **** READM2 **** NEW DEFAULT: FOCK/KS MATRIX MIXING SET TO 30 %
 INFORMATION **** READM2 **** NEW DEFAULT: FULL DIRECT SCF MODE
 INFORMATION **** READM2 **** NEW DEFAULT: COULOMB BIPOLAR BUFFER SET TO 32 Mb
 INFORMATION **** READM2 **** NEW DEFAULT: EXCHANGE BIPOLAR BUFFER SET TO 32 Mb
 INFORMATION **** PPAN ****  MULLIKEN POPULATION ANALYSIS AT THE END OF SCF
 *******************************************************************************
 N. OF ATOMS PER CELL        10  COULOMB OVERLAP TOL         (T1) 10**   -6
 NUMBER OF SHELLS            30  COULOMB PENETRATION TOL     (T2) 10**   -6
 NUMBER OF AO                90  EXCHANGE OVERLAP TOL        (T3) 10**   -6
 N. OF ELECTRONS PER CELL   100  EXCHANGE PSEUDO OVP (F(G))  (T4) 10**   -6
 CORE ELECTRONS PER CELL     60  EXCHANGE PSEUDO OVP (P(G))  (T5) 10**  -12
 N. OF SYMMETRY OPERATORS    16  POLE ORDER IN MONO ZONE                  4
 *******************************************************************************
 TYPE OF CALCULATION :  RESTRICTED CLOSED SHELL
 HARTREE-FOCK HAMILTONIAN

 CAPPA:IS1  8;IS2  8;IS3  1; K PTS MONK NET  15; SYMMOPS:K SPACE  16;G SPACE  16

 *******************************************************************************
 MAX NUMBER OF SCF CYCLES      50  CONVERGENCE ON DELTAP        10**-16
 WEIGHT OF F(I) IN F(I+1)      30% CONVERGENCE ON ENERGY        10**- 6
 SHRINK. FACT.(MONKH.)    8  8  1  NUMBER OF K POINTS IN THE IBZ     15
 SHRINKING FACTOR(GILAT NET)    8  NUMBER OF K POINTS(GILAT NET)     15
 *******************************************************************************
 *** K POINTS COORDINATES (OBLIQUE COORDINATES IN UNITS OF IS =  8)
   1-R(  0  0  0)   2-C(  1  0  0)   3-C(  2  0  0)   4-C(  3  0  0)
   5-R(  4  0  0)   6-C(  1  1  0)   7-C(  2  1  0)   8-C(  3  1  0)
   9-C(  4  1  0)  10-C(  2  2  0)  11-C(  3  2  0)  12-C(  4  2  0)
  13-C(  3  3  0)  14-C(  4  3  0)  15-R(  4  4  0)

 DIRECT LATTICE VECTORS COMPON. (A.U.)     RECIP. LATTICE VECTORS COMPON. (A.U.) 
        X            Y            Z              X            Y            Z
    5.6255627    0.0000000    0.0000000      1.1168990    0.0000000    0.0000000
    0.0000000    5.6255627    0.0000000      0.0000000    1.1168990    0.0000000
    0.0000000    0.0000000  944.8630670      0.0000000    0.0000000    0.0066498

 DISK SPACE FOR EIGENVECTORS (FTN 10)      218700 REALS

 SYMMETRY ADAPTION OF THE BLOCH FUNCTIONS ENABLED
 TTTTTTTTTTTTTTTTTTTTTTTTTTTTTT gordsh1     TELAPSE        1.04 TCPU        0.02

 MATRIX SIZE: P(G)   66822, F(G)   13650, P(G) IRR    4814, F(G) IRR    2482
 MAX G-VECTOR INDEX FOR 1- AND 2-ELECTRON INTEGRALS  35

 TTTTTTTTTTTTTTTTTTTTTTTTTTTTTT INPUT       TELAPSE        1.04 TCPU        0.02

 NEIGHBORS OF THE NON-EQUIVALENT ATOMS

 N = NUMBER OF NEIGHBORS AT DISTANCE R
    ATOM  N     R/ANG      R/AU   NEIGHBORS (ATOM LABELS AND CELL INDICES)
   1 MG   5     2.1050     3.9779    2 O    0 0 0    2 O   -1 0 0    2 O    0-1 0
                                     2 O   -1-1 0    4 O    0 0 0
   1 MG   8     2.9769     5.6256    1 MG  -1 0 0    1 MG   1 0 0    1 MG   0-1 0
                                     1 MG   0 1 0    3 MG   0 0 0    3 MG  -1 0 0
                                     3 MG   0-1 0    3 MG  -1-1 0
   1 MG   4     3.6460     6.8899    4 O    1 0 0    4 O   -1 0 0    4 O    0 1 0
                                     4 O    0-1 0
   1 MG   5     4.2100     7.9557    1 MG  -1-1 0    1 MG   1 1 0    1 MG  -1 1 0
                                     1 MG   1-1 0    5 MG   0 0 0
   1 MG  16     4.7069     8.8948    2 O    1 0 0    2 O    0 1 0    2 O    1-1 0
                                     2 O   -1 1 0    2 O   -2 0 0    2 O    0-2 0
                                     2 O   -2-1 0    2 O   -1-2 0    4 O    1 1 0
                                     4 O   -1-1 0    4 O    1-1 0    4 O   -1 1 0
                                     6 O   -1-1 0    6 O   -1 0 0    6 O    0-1 0
                                     6 O    0 0 0
   1 MG  12     5.1562     9.7438    3 MG   1 0 0    3 MG   0 1 0    3 MG   1-1 0
                                     3 MG  -1 1 0    3 MG  -2 0 0    3 MG   0-2 0
                                     3 MG  -2-1 0    3 MG  -1-2 0    5 MG   1 0 0
                                     5 MG  -1 0 0    5 MG   0 1 0    5 MG   0-1 0

   2 O    5     2.1050     3.9779    1 MG   0 0 0    1 MG   1 0 0    1 MG   0 1 0
                                     1 MG   1 1 0    3 MG   0 0 0
   2 O    8     2.9769     5.6256    2 O   -1 0 0    2 O    1 0 0    2 O    0-1 0
                                     2 O    0 1 0    4 O    1 1 0    4 O    1 0 0
                                     4 O    0 1 0    4 O    0 0 0
   2 O    4     3.6460     6.8899    3 MG   1 0 0    3 MG  -1 0 0    3 MG   0 1 0
                                     3 MG   0-1 0
   2 O    5     4.2100     7.9557    2 O   -1-1 0    2 O    1 1 0    2 O   -1 1 0
                                     2 O    1-1 0    6 O    0 0 0
   2 O   16     4.7069     8.8948    1 MG  -1 0 0    1 MG   0-1 0    1 MG  -1 1 0
                                     1 MG   1-1 0    1 MG   2 0 0    1 MG   0 2 0
                                     1 MG   2 1 0    1 MG   1 2 0    3 MG   1 1 0
                                     3 MG  -1-1 0    3 MG   1-1 0    3 MG  -1 1 0
                                     5 MG   0 0 0    5 MG   1 0 0    5 MG   0 1 0
                                     5 MG   1 1 0
   2 O   12     5.1562     9.7438    4 O    1 2 0    4 O    2 1 0    4 O    0 2 0
                                     4 O    2 0 0    4 O    1-1 0    4 O   -1 1 0
                                     4 O    0-1 0    4 O   -1 0 0    6 O    1 0 0
                                     6 O   -1 0 0    6 O    0 1 0    6 O    0-1 0

   3 MG   6     2.1050     3.9779    2 O    0 0 0    4 O    0 0 0    4 O    1 0 0
                                     4 O    0 1 0    4 O    1 1 0    6 O    0 0 0
   3 MG  12     2.9769     5.6256    1 MG   0 0 0    1 MG   1 0 0    1 MG   0 1 0
                                     1 MG   1 1 0    3 MG  -1 0 0    3 MG   1 0 0
                                     3 MG   0-1 0    3 MG   0 1 0    5 MG   1 1 0
                                     5 MG   1 0 0    5 MG   0 1 0    5 MG   0 0 0
   3 MG   8     3.6460     6.8899    2 O   -1 0 0    2 O    1 0 0    2 O    0-1 0
                                     2 O    0 1 0    6 O    1 0 0    6 O   -1 0 0
                                     6 O    0 1 0    6 O    0-1 0
   3 MG   5     4.2100     7.9557    3 MG  -1-1 0    3 MG   1 1 0    3 MG  -1 1 0
                                     3 MG   1-1 0    7 MG   0 0 0
   3 MG  20     4.7069     8.8948    2 O   -1-1 0    2 O    1 1 0    2 O   -1 1 0
                                     2 O    1-1 0    4 O   -1 0 0    4 O    0-1 0
                                     4 O   -1 1 0    4 O    1-1 0    4 O    2 0 0
                                     4 O    0 2 0    4 O    2 1 0    4 O    1 2 0
                                     6 O    1 1 0    6 O   -1-1 0    6 O    1-1 0
                                     6 O   -1 1 0    8 O    0 0 0    8 O    1 0 0
                                     8 O    0 1 0    8 O    1 1 0
   3 MG  20     5.1562     9.7438    1 MG  -1 0 0    1 MG   0-1 0    1 MG  -1 1 0
                                     1 MG   1-1 0    1 MG   2 0 0    1 MG   0 2 0
                                     1 MG   2 1 0    1 MG   1 2 0    5 MG   1 2 0
                                     5 MG   2 1 0    5 MG   0 2 0    5 MG   2 0 0
                                     5 MG   1-1 0    5 MG  -1 1 0    5 MG   0-1 0
                                     5 MG  -1 0 0    7 MG   1 0 0    7 MG  -1 0 0
                                     7 MG   0 1 0    7 MG   0-1 0

   4 O    6     2.1050     3.9779    1 MG   0 0 0    3 MG   0 0 0    3 MG  -1 0 0
                                     3 MG   0-1 0    3 MG  -1-1 0    5 MG   0 0 0
   4 O   12     2.9769     5.6256    2 O   -1-1 0    2 O   -1 0 0    2 O    0-1 0
                                     2 O    0 0 0    4 O   -1 0 0    4 O    1 0 0
                                     4 O    0-1 0    4 O    0 1 0    6 O    0 0 0
                                     6 O   -1 0 0    6 O    0-1 0    6 O   -1-1 0
   4 O    8     3.6460     6.8899    1 MG  -1 0 0    1 MG   1 0 0    1 MG   0-1 0
                                     1 MG   0 1 0    5 MG   1 0 0    5 MG  -1 0 0
                                     5 MG   0 1 0    5 MG   0-1 0
   4 O    5     4.2100     7.9557    4 O   -1-1 0    4 O    1 1 0    4 O   -1 1 0
                                     4 O    1-1 0    8 O    0 0 0
   4 O   20     4.7069     8.8948    1 MG  -1-1 0    1 MG   1 1 0    1 MG  -1 1 0
                                     1 MG   1-1 0    3 MG   1 0 0    3 MG   0 1 0
                                     3 MG   1-1 0    3 MG  -1 1 0    3 MG  -2 0 0
                                     3 MG   0-2 0    3 MG  -2-1 0    3 MG  -1-2 0
                                     5 MG   1 1 0    5 MG  -1-1 0    5 MG   1-1 0
                                     5 MG  -1 1 0    7 MG  -1-1 0    7 MG  -1 0 0
                                     7 MG   0-1 0    7 MG   0 0 0
   4 O   20     5.1562     9.7438    2 O   -1-2 0    2 O   -2-1 0    2 O    0-2 0
                                     2 O   -2 0 0    2 O   -1 1 0    2 O    1-1 0
                                     2 O    0 1 0    2 O    1 0 0    6 O    1 0 0
                                     6 O    0 1 0    6 O    1-1 0    6 O   -1 1 0
                                     6 O   -2 0 0    6 O    0-2 0    6 O   -2-1 0
                                     6 O   -1-2 0    8 O    1 0 0    8 O   -1 0 0
                                     8 O    0 1 0    8 O    0-1 0

   5 MG   6     2.1050     3.9779    4 O    0 0 0    6 O    0 0 0    6 O   -1 0 0
                                     6 O    0-1 0    6 O   -1-1 0    8 O    0 0 0
   5 MG  12     2.9769     5.6256    3 MG  -1-1 0    3 MG  -1 0 0    3 MG   0-1 0
                                     3 MG   0 0 0    5 MG  -1 0 0    5 MG   1 0 0
                                     5 MG   0-1 0    5 MG   0 1 0    7 MG   0 0 0
                                     7 MG  -1 0 0    7 MG   0-1 0    7 MG  -1-1 0
   5 MG   8     3.6460     6.8899    4 O   -1 0 0    4 O    1 0 0    4 O    0-1 0
                                     4 O    0 1 0    8 O    1 0 0    8 O   -1 0 0
                                     8 O    0 1 0    8 O    0-1 0
   5 MG   6     4.2100     7.9557    1 MG   0 0 0    5 MG  -1-1 0    5 MG   1 1 0
                                     5 MG  -1 1 0    5 MG   1-1 0    9 MG   0 0 0
   5 MG  24     4.7069     8.8948    2 O    0 0 0    2 O   -1 0 0    2 O    0-1 0
                                     2 O   -1-1 0    4 O   -1-1 0    4 O    1 1 0
                                     4 O   -1 1 0    4 O    1-1 0    6 O    1 0 0
                                     6 O    0 1 0    6 O    1-1 0    6 O   -1 1 0
                                     6 O   -2 0 0    6 O    0-2 0    6 O   -2-1 0
                                     6 O   -1-2 0    8 O    1 1 0    8 O   -1-1 0
                                     8 O    1-1 0    8 O   -1 1 0   10 O   -1-1 0
                                    10 O   -1 0 0   10 O    0-1 0   10 O    0 0 0
   5 MG  24     5.1562     9.7438    1 MG  -1 0 0    1 MG   1 0 0    1 MG   0-1 0
                                     1 MG   0 1 0    3 MG  -1-2 0    3 MG  -2-1 0
                                     3 MG   0-2 0    3 MG  -2 0 0    3 MG  -1 1 0
                                     3 MG   1-1 0    3 MG   0 1 0    3 MG   1 0 0
                                     7 MG   1 0 0    7 MG   0 1 0    7 MG   1-1 0
                                     7 MG  -1 1 0    7 MG  -2 0 0    7 MG   0-2 0
                                     7 MG  -2-1 0    7 MG  -1-2 0    9 MG   1 0 0
                                     9 MG  -1 0 0    9 MG   0 1 0    9 MG   0-1 0

   6 O    6     2.1050     3.9779    3 MG   0 0 0    5 MG   0 0 0    5 MG   1 0 0
                                     5 MG   0 1 0    5 MG   1 1 0    7 MG   0 0 0
   6 O   12     2.9769     5.6256    4 O    0 0 0    4 O    1 0 0    4 O    0 1 0
                                     4 O    1 1 0    6 O   -1 0 0    6 O    1 0 0
                                     6 O    0-1 0    6 O    0 1 0    8 O    1 1 0
                                     8 O    1 0 0    8 O    0 1 0    8 O    0 0 0
   6 O    8     3.6460     6.8899    3 MG  -1 0 0    3 MG   1 0 0    3 MG   0-1 0
                                     3 MG   0 1 0    7 MG   1 0 0    7 MG  -1 0 0
                                     7 MG   0 1 0    7 MG   0-1 0
   6 O    6     4.2100     7.9557    2 O    0 0 0    6 O   -1-1 0    6 O    1 1 0
                                     6 O   -1 1 0    6 O    1-1 0   10 O    0 0 0
   6 O   24     4.7069     8.8948    1 MG   1 1 0    1 MG   1 0 0    1 MG   0 1 0
                                     1 MG   0 0 0    3 MG  -1-1 0    3 MG   1 1 0
                                     3 MG  -1 1 0    3 MG   1-1 0    5 MG  -1 0 0
                                     5 MG   0-1 0    5 MG  -1 1 0    5 MG   1-1 0
                                     5 MG   2 0 0    5 MG   0 2 0    5 MG   2 1 0
                                     5 MG   1 2 0    7 MG   1 1 0    7 MG  -1-1 0
                                     7 MG   1-1 0    7 MG  -1 1 0    9 MG   0 0 0
                                     9 MG   1 0 0    9 MG   0 1 0    9 MG   1 1 0
   6 O   24     5.1562     9.7438    2 O   -1 0 0    2 O    1 0 0    2 O    0-1 0
                                     2 O    0 1 0    4 O   -1 0 0    4 O    0-1 0
                                     4 O   -1 1 0    4 O    1-1 0    4 O    2 0 0
                                     4 O    0 2 0    4 O    2 1 0    4 O    1 2 0
                                     8 O    1 2 0    8 O    2 1 0    8 O    0 2 0
                                     8 O    2 0 0    8 O    1-1 0    8 O   -1 1 0
                                     8 O    0-1 0    8 O   -1 0 0   10 O    1 0 0
                                    10 O   -1 0 0   10 O    0 1 0   10 O    0-1 0


 SYMMETRY ALLOWED INTERNAL DEGREE(S) OF FREEDOM:   4
 TTTTTTTTTTTTTTTTTTTTTTTTTTTTTT SYMM        TELAPSE        1.05 TCPU        0.02
 TTTTTTTTTTTTTTTTTTTTTTTTTTTTTT INT_SCREEN  TELAPSE        1.05 TCPU        0.02
 INFORMATION **** EXCBUF **** EXCH. BIPO BUFFER: WORDS USED =      284553
 TTTTTTTTTTTTTTTTTTTTTTTTTTTTTT INT_CALC    TELAPSE        1.06 TCPU        0.04
 EEEEEEEEEE INT_CALC TERMINATION  DATE 01 09 2018 TIME 11:16:27.3

 *******************************************************************************
 TEST11 - MGO BULK                                                               
 CRYSTAL - SCF - TYPE OF CALCULATION :  RESTRICTED CLOSED SHELL
 *******************************************************************************

 CAPPA:IS1  8;IS2  8;IS3  1; K PTS MONK NET  15; SYMMOPS:K SPACE  16;G SPACE  16

 TTTTTTTTTTTTTTTTTTTTTTTTTTTTTT SDIK        TELAPSE        1.06 TCPU        0.04

 AAAAAAAAAAAAAAAAAAAAAAAAAAAAAAAAAAAAAAAAAAAAAAAAAAAAAAAAAAAAAAAAAAAAAAAAAAAAAAA
         ATOMIC WAVEFUNCTION(S)


 NUCLEAR CHARGE 12.0  SYMMETRY SPECIES            S    P
 N. ELECTRONS   10.0  NUMBER OF PRIMITIVE GTOS   15    7
                      NUMBER OF CONTRACTED GTOS   3    2
                      NUMBER OF CLOSED SHELLS     2    1
                      OPEN SHELL OCCUPATION       0    0

  ZNUC SCFIT  TOTAL HF ENERGY   KINETIC ENERGY   VIRIAL THEOREM ACCURACY
  12.0   6   -1.988200719E+02  1.987325169E+02 -2.000440567E+00  1.3E-06

 NUCLEAR CHARGE  8.0  SYMMETRY SPECIES            S    P
 N. ELECTRONS   10.0  NUMBER OF PRIMITIVE GTOS   14    6
                      NUMBER OF CONTRACTED GTOS   3    2
                      NUMBER OF CLOSED SHELLS     2    1
                      OPEN SHELL OCCUPATION       0    0

  ZNUC SCFIT  TOTAL HF ENERGY   KINETIC ENERGY   VIRIAL THEOREM ACCURACY
   8.0  37   -7.429054355E+01  7.468454787E+01 -1.994724420E+00  4.5E-06

 AAAAAAAAAAAAAAAAAAAAAAAAAAAAAAAAAAAAAAAAAAAAAAAAAAAAAAAAAAAAAAAAAAAAAAAAAAAAAAA

 CHARGE NORMALIZATION FACTOR   1.00000000
 TOTAL ATOMIC CHARGES:
  10.0000000  10.0000000  10.0000000  10.0000000  10.0000000  10.0000000
  10.0000000  10.0000000  10.0000000  10.0000000
 TTTTTTTTTTTTTTTTTTTTTTTTTTTTTT MOQGAD      TELAPSE        1.07 TCPU        0.05
 TTTTTTTTTTTTTTTTTTTTTTTTTTTTTT SHELLXN     TELAPSE        1.66 TCPU        0.63
 TTTTTTTTTTTTTTTTTTTTTTTTTTTTTT MONMO3      TELAPSE        1.71 TCPU        0.68
 CYC   0 ETOT(AU) -1.375229698579E+03 DETOT -1.38E+03 tst  0.00E+00 PX  1.00E+00
 TTTTTTTTTTTTTTTTTTTTTTTTTTTTTT DIIS        TELAPSE        1.71 TCPU        0.69
 TTTTTTTTTTTTTTTTTTTTTTTTTTTTTT FDIK        TELAPSE        1.73 TCPU        0.70
 INSULATING STATE
 TOP OF VALENCE BANDS -    BAND     50; K    1; EIG -3.4438154E-01 AU
 BOTTOM OF VIRTUAL BANDS - BAND     51; K    1; EIG  3.9737765E-01 AU
 DIRECT ENERGY BAND GAP:  20.1843 eV
 TTTTTTTTTTTTTTTTTTTTTTTTTTTTTT PDIG        TELAPSE        1.73 TCPU        0.70
 CHARGE NORMALIZATION FACTOR   1.00000000
 TOTAL ATOMIC CHARGES:
  10.0288390   9.9663423  10.0184908   9.9862903  10.0158759   9.9841993
  10.0184908   9.9862903  10.0288390   9.9663423
 TTTTTTTTTTTTTTTTTTTTTTTTTTTTTT MOQGAD      TELAPSE        1.74 TCPU        0.71
 TTTTTTTTTTTTTTTTTTTTTTTTTTTTTT SHELLXN     TELAPSE        2.34 TCPU        1.31
 TTTTTTTTTTTTTTTTTTTTTTTTTTTTTT MONMO3      TELAPSE        2.39 TCPU        1.37
 CYC   1 ETOT(AU) -1.373231264396E+03 DETOT  2.00E+00 tst  0.00E+00 PX  1.00E+00
 TTTTTTTTTTTTTTTTTTTTTTTTTTTTTT DIIS        TELAPSE        2.40 TCPU        1.37
 DIIS TEST: 0.73933E-01 AT SCF   CYCLE   1 - MIX   30 %
 TTTTTTTTTTTTTTTTTTTTTTTTTTTTTT FDIK        TELAPSE        2.40 TCPU        1.38
 INSULATING STATE
 TOP OF VALENCE BANDS -    BAND     50; K    1; EIG -3.1277922E-01 AU
 BOTTOM OF VIRTUAL BANDS - BAND     51; K    1; EIG  4.2362267E-01 AU
 DIRECT ENERGY BAND GAP:  20.0385 eV
 TTTTTTTTTTTTTTTTTTTTTTTTTTTTTT PDIG        TELAPSE        2.41 TCPU        1.38
 CHARGE NORMALIZATION FACTOR   1.00000000
 TOTAL ATOMIC CHARGES:
  10.0363750   9.9586283  10.0241796   9.9808263  10.0209582   9.9790235
  10.0241796   9.9808263  10.0363750   9.9586283
 TTTTTTTTTTTTTTTTTTTTTTTTTTTTTT MOQGAD      TELAPSE        2.41 TCPU        1.39
 TTTTTTTTTTTTTTTTTTTTTTTTTTTTTT SHELLXN     TELAPSE        3.01 TCPU        1.98
 TTTTTTTTTTTTTTTTTTTTTTTTTTTTTT MONMO3      TELAPSE        3.07 TCPU        2.04
 CYC   2 ETOT(AU) -1.373260470749E+03 DETOT -2.92E-02 tst  7.80E-04 PX  6.04E-02
 TTTTTTTTTTTTTTTTTTTTTTTTTTTTTT DIIS        TELAPSE        3.07 TCPU        2.04
 DIIS TEST: 0.21939E-02 AT SCF   CYCLE   2 - DIIS ACTIVE - HISTORY:     2 CYCLES
 TTTTTTTTTTTTTTTTTTTTTTTTTTTTTT FDIK        TELAPSE        3.08 TCPU        2.05
 INSULATING STATE
 TOP OF VALENCE BANDS -    BAND     50; K    1; EIG -3.4279234E-01 AU
 BOTTOM OF VIRTUAL BANDS - BAND     51; K    1; EIG  4.0475299E-01 AU
 DIRECT ENERGY BAND GAP:  20.3418 eV
 TTTTTTTTTTTTTTTTTTTTTTTTTTTTTT PDIG        TELAPSE        3.09 TCPU        2.06
 CHARGE NORMALIZATION FACTOR   1.00000000
 TOTAL ATOMIC CHARGES:
  10.0373728   9.9570192  10.0246979   9.9809215  10.0210444   9.9789329
  10.0246979   9.9809215  10.0373728   9.9570192
 TTTTTTTTTTTTTTTTTTTTTTTTTTTTTT MOQGAD      TELAPSE        3.09 TCPU        2.06
 TTTTTTTTTTTTTTTTTTTTTTTTTTTTTT SHELLXN     TELAPSE        3.69 TCPU        2.66
 TTTTTTTTTTTTTTTTTTTTTTTTTTTTTT MONMO3      TELAPSE        3.75 TCPU        2.72
 CYC   3 ETOT(AU) -1.373261285533E+03 DETOT -8.15E-04 tst  2.66E-05 PX  1.08E-02
 TTTTTTTTTTTTTTTTTTTTTTTTTTTTTT DIIS        TELAPSE        3.75 TCPU        2.72
 DIIS TEST: 0.31177E-04 AT SCF   CYCLE   3 - DIIS ACTIVE - HISTORY:     3 CYCLES
 TTTTTTTTTTTTTTTTTTTTTTTTTTTTTT FDIK        TELAPSE        3.75 TCPU        2.73
 INSULATING STATE
 TOP OF VALENCE BANDS -    BAND     50; K    1; EIG -3.4098704E-01 AU
 BOTTOM OF VIRTUAL BANDS - BAND     51; K    1; EIG  4.0730291E-01 AU
 DIRECT ENERGY BAND GAP:  20.3620 eV
 TTTTTTTTTTTTTTTTTTTTTTTTTTTTTT PDIG        TELAPSE        3.76 TCPU        2.74
 CHARGE NORMALIZATION FACTOR   1.00000000
 TOTAL ATOMIC CHARGES:
  10.0376751   9.9566387  10.0246651   9.9810262  10.0209393   9.9790505
  10.0246651   9.9810262  10.0376751   9.9566387
 TTTTTTTTTTTTTTTTTTTTTTTTTTTTTT MOQGAD      TELAPSE        3.77 TCPU        2.74
 TTTTTTTTTTTTTTTTTTTTTTTTTTTTTT SHELLXN     TELAPSE        4.37 TCPU        3.34
 TTTTTTTTTTTTTTTTTTTTTTTTTTTTTT MONMO3      TELAPSE        4.42 TCPU        3.40
 CYC   4 ETOT(AU) -1.373261294333E+03 DETOT -8.80E-06 tst  3.50E-07 PX  1.76E-03
 TTTTTTTTTTTTTTTTTTTTTTTTTTTTTT DIIS        TELAPSE        4.43 TCPU        3.40
 DIIS TEST: 0.19130E-05 AT SCF   CYCLE   4 - DIIS ACTIVE - HISTORY:     4 CYCLES
 TTTTTTTTTTTTTTTTTTTTTTTTTTTTTT FDIK        TELAPSE        4.43 TCPU        3.40
 INSULATING STATE
 TOP OF VALENCE BANDS -    BAND     50; K    1; EIG -3.4098125E-01 AU
 BOTTOM OF VIRTUAL BANDS - BAND     51; K    1; EIG  4.0752548E-01 AU
 DIRECT ENERGY BAND GAP:  20.3679 eV
 TTTTTTTTTTTTTTTTTTTTTTTTTTTTTT PDIG        TELAPSE        4.44 TCPU        3.41
 CHARGE NORMALIZATION FACTOR   1.00000000
 TOTAL ATOMIC CHARGES:
  10.0376837   9.9566677  10.0246585   9.9810028  10.0209367   9.9790378
  10.0246585   9.9810028  10.0376837   9.9566677
 TTTTTTTTTTTTTTTTTTTTTTTTTTTTTT MOQGAD      TELAPSE        4.44 TCPU        3.42
 TTTTTTTTTTTTTTTTTTTTTTTTTTTTTT SHELLXN     TELAPSE        5.04 TCPU        4.02
 TTTTTTTTTTTTTTTTTTTTTTTTTTTTTT MONMO3      TELAPSE        5.10 TCPU        4.07
 CYC   5 ETOT(AU) -1.373261295414E+03 DETOT -1.08E-06 tst  1.12E-07 PX  9.17E-04
 TTTTTTTTTTTTTTTTTTTTTTTTTTTTTT DIIS        TELAPSE        5.10 TCPU        4.08
 DIIS TEST: 0.53123E-06 AT SCF   CYCLE   5 - DIIS ACTIVE - HISTORY:     5 CYCLES
 TTTTTTTTTTTTTTTTTTTTTTTTTTTTTT FDIK        TELAPSE        5.11 TCPU        4.08
 INSULATING STATE
 TOP OF VALENCE BANDS -    BAND     50; K    1; EIG -3.4094705E-01 AU
 BOTTOM OF VIRTUAL BANDS - BAND     51; K    1; EIG  4.0749974E-01 AU
 DIRECT ENERGY BAND GAP:  20.3663 eV
 TTTTTTTTTTTTTTTTTTTTTTTTTTTTTT PDIG        TELAPSE        5.11 TCPU        4.09
 CHARGE NORMALIZATION FACTOR   1.00000000
 TOTAL ATOMIC CHARGES:
  10.0376996   9.9566336  10.0246524   9.9810225  10.0209288   9.9790549
  10.0246524   9.9810225  10.0376996   9.9566336
 TTTTTTTTTTTTTTTTTTTTTTTTTTTTTT MOQGAD      TELAPSE        5.12 TCPU        4.09
 TTTTTTTTTTTTTTTTTTTTTTTTTTTTTT SHELLXN     TELAPSE        5.72 TCPU        4.69
 TTTTTTTTTTTTTTTTTTTTTTTTTTTTTT MONMO3      TELAPSE        5.78 TCPU        4.75
 CYC   6 ETOT(AU) -1.373261295678E+03 DETOT -2.64E-07 tst  8.65E-09 PX  2.31E-04
 TTTTTTTTTTTTTTTTTTTTTTTTTTTTTT DIIS        TELAPSE        5.78 TCPU        4.75
 DIIS TEST: 0.33003E-07 AT SCF   CYCLE   6 - DIIS ACTIVE - HISTORY:     6 CYCLES
 TTTTTTTTTTTTTTTTTTTTTTTTTTTTTT FDIK        TELAPSE        5.78 TCPU        4.76
 INSULATING STATE
 TOP OF VALENCE BANDS -    BAND     50; K    1; EIG -3.4090922E-01 AU
 BOTTOM OF VIRTUAL BANDS - BAND     51; K    1; EIG  4.0754895E-01 AU
 DIRECT ENERGY BAND GAP:  20.3666 eV
 TTTTTTTTTTTTTTTTTTTTTTTTTTTTTT PDIG        TELAPSE        5.79 TCPU        4.76
 CHARGE NORMALIZATION FACTOR   1.00000000
 TOTAL ATOMIC CHARGES:
  10.0377017   9.9566343  10.0246491   9.9810223  10.0209273   9.9790580
  10.0246491   9.9810223  10.0377017   9.9566343
 TTTTTTTTTTTTTTTTTTTTTTTTTTTTTT MOQGAD      TELAPSE        5.80 TCPU        4.77
 TTTTTTTTTTTTTTTTTTTTTTTTTTTTTT SHELLXN     TELAPSE        6.39 TCPU        5.36

 ::: DIPOLE MOMENT ALONG NON PERIODIC DIRECTIONS:
 ::: A.U.     (Z)  3.90799E-14
 ::: DEBYE        -9.93311E-14

 +++ ENERGIES IN A.U. +++
 ::: EXT EL-POLE                                  -8.8074720694110E+03
 ::: EXT EL-SPHEROPOLE                             0.0000000000000E+00
 ::: BIELET ZONE E-E                               2.5471658965575E+03
 ::: TOTAL E-E                                    -6.2603061728535E+03
 ::: TOTAL E-N + N-E                               1.0329559688074E+04
 ::: TOTAL N-N                                    -6.8154499591679E+03
 ::: KINETIC ENERGY                                1.3729351482291E+03
 ::: TOTAL   ENERGY                               -1.3732612957179E+03
 ::: VIRIAL COEFFICIENT                            9.9988123665022E-01
 TTTTTTTTTTTTTTTTTTTTTTTTTTTTTT MONMO3      TELAPSE        6.45 TCPU        5.42
 CYC   7 ETOT(AU) -1.373261295718E+03 DETOT -4.01E-08 tst  4.20E-09 PX  2.31E-04

 == SCF ENDED - CONVERGENCE ON ENERGY      E(AU) -1.3732612957179E+03 CYCLES   7

 TOTAL ENERGY(HF)(AU)(   7) -1.3732612957179E+03 DE-4.0E-08 tst 4.2E-09 PX 2.3E-04

 NEIGHBORS OF THE NON-EQUIVALENT ATOMS

 N = NUMBER OF NEIGHBORS AT DISTANCE R
    ATOM  N     R/ANG      R/AU   NEIGHBORS (ATOM LABELS AND CELL INDICES)
   1 MG   5     2.1050     3.9779    2 O    0 0 0    2 O   -1 0 0    2 O    0-1 0
                                     2 O   -1-1 0    4 O    0 0 0
   1 MG   8     2.9769     5.6256    1 MG  -1 0 0    1 MG   1 0 0    1 MG   0-1 0
                                     1 MG   0 1 0    3 MG   0 0 0    3 MG  -1 0 0
                                     3 MG   0-1 0    3 MG  -1-1 0
   1 MG   4     3.6460     6.8899    4 O    1 0 0    4 O   -1 0 0    4 O    0 1 0
                                     4 O    0-1 0
   1 MG   5     4.2100     7.9557    1 MG  -1-1 0    1 MG   1 1 0    1 MG  -1 1 0
                                     1 MG   1-1 0    5 MG   0 0 0
   1 MG  16     4.7069     8.8948    2 O    1 0 0    2 O    0 1 0    2 O    1-1 0
                                     2 O   -1 1 0    2 O   -2 0 0    2 O    0-2 0
                                     2 O   -2-1 0    2 O   -1-2 0    4 O    1 1 0
                                     4 O   -1-1 0    4 O    1-1 0    4 O   -1 1 0
                                     6 O   -1-1 0    6 O   -1 0 0    6 O    0-1 0
                                     6 O    0 0 0
   1 MG  12     5.1562     9.7438    3 MG   1 0 0    3 MG   0 1 0    3 MG   1-1 0
                                     3 MG  -1 1 0    3 MG  -2 0 0    3 MG   0-2 0
                                     3 MG  -2-1 0    3 MG  -1-2 0    5 MG   1 0 0
                                     5 MG  -1 0 0    5 MG   0 1 0    5 MG   0-1 0

   2 O    5     2.1050     3.9779    1 MG   0 0 0    1 MG   1 0 0    1 MG   0 1 0
                                     1 MG   1 1 0    3 MG   0 0 0
   2 O    8     2.9769     5.6256    2 O   -1 0 0    2 O    1 0 0    2 O    0-1 0
                                     2 O    0 1 0    4 O    1 1 0    4 O    1 0 0
                                     4 O    0 1 0    4 O    0 0 0
   2 O    4     3.6460     6.8899    3 MG   1 0 0    3 MG  -1 0 0    3 MG   0 1 0
                                     3 MG   0-1 0
   2 O    5     4.2100     7.9557    2 O   -1-1 0    2 O    1 1 0    2 O   -1 1 0
                                     2 O    1-1 0    6 O    0 0 0
   2 O   16     4.7069     8.8948    1 MG  -1 0 0    1 MG   0-1 0    1 MG  -1 1 0
                                     1 MG   1-1 0    1 MG   2 0 0    1 MG   0 2 0
                                     1 MG   2 1 0    1 MG   1 2 0    3 MG   1 1 0
                                     3 MG  -1-1 0    3 MG   1-1 0    3 MG  -1 1 0
                                     5 MG   0 0 0    5 MG   1 0 0    5 MG   0 1 0
                                     5 MG   1 1 0
   2 O   12     5.1562     9.7438    4 O    1 2 0    4 O    2 1 0    4 O    0 2 0
                                     4 O    2 0 0    4 O    1-1 0    4 O   -1 1 0
                                     4 O    0-1 0    4 O   -1 0 0    6 O    1 0 0
                                     6 O   -1 0 0    6 O    0 1 0    6 O    0-1 0

   3 MG   6     2.1050     3.9779    2 O    0 0 0    4 O    0 0 0    4 O    1 0 0
                                     4 O    0 1 0    4 O    1 1 0    6 O    0 0 0
   3 MG  12     2.9769     5.6256    1 MG   0 0 0    1 MG   1 0 0    1 MG   0 1 0
                                     1 MG   1 1 0    3 MG  -1 0 0    3 MG   1 0 0
                                     3 MG   0-1 0    3 MG   0 1 0    5 MG   1 1 0
                                     5 MG   1 0 0    5 MG   0 1 0    5 MG   0 0 0
   3 MG   8     3.6460     6.8899    2 O   -1 0 0    2 O    1 0 0    2 O    0-1 0
                                     2 O    0 1 0    6 O    1 0 0    6 O   -1 0 0
                                     6 O    0 1 0    6 O    0-1 0
   3 MG   5     4.2100     7.9557    3 MG  -1-1 0    3 MG   1 1 0    3 MG  -1 1 0
                                     3 MG   1-1 0    7 MG   0 0 0
   3 MG  20     4.7069     8.8948    2 O   -1-1 0    2 O    1 1 0    2 O   -1 1 0
                                     2 O    1-1 0    4 O   -1 0 0    4 O    0-1 0
                                     4 O   -1 1 0    4 O    1-1 0    4 O    2 0 0
                                     4 O    0 2 0    4 O    2 1 0    4 O    1 2 0
                                     6 O    1 1 0    6 O   -1-1 0    6 O    1-1 0
                                     6 O   -1 1 0    8 O    0 0 0    8 O    1 0 0
                                     8 O    0 1 0    8 O    1 1 0
   3 MG  20     5.1562     9.7438    1 MG  -1 0 0    1 MG   0-1 0    1 MG  -1 1 0
                                     1 MG   1-1 0    1 MG   2 0 0    1 MG   0 2 0
                                     1 MG   2 1 0    1 MG   1 2 0    5 MG   1 2 0
                                     5 MG   2 1 0    5 MG   0 2 0    5 MG   2 0 0
                                     5 MG   1-1 0    5 MG  -1 1 0    5 MG   0-1 0
                                     5 MG  -1 0 0    7 MG   1 0 0    7 MG  -1 0 0
                                     7 MG   0 1 0    7 MG   0-1 0

   4 O    6     2.1050     3.9779    1 MG   0 0 0    3 MG   0 0 0    3 MG  -1 0 0
                                     3 MG   0-1 0    3 MG  -1-1 0    5 MG   0 0 0
   4 O   12     2.9769     5.6256    2 O   -1-1 0    2 O   -1 0 0    2 O    0-1 0
                                     2 O    0 0 0    4 O   -1 0 0    4 O    1 0 0
                                     4 O    0-1 0    4 O    0 1 0    6 O    0 0 0
                                     6 O   -1 0 0    6 O    0-1 0    6 O   -1-1 0
   4 O    8     3.6460     6.8899    1 MG  -1 0 0    1 MG   1 0 0    1 MG   0-1 0
                                     1 MG   0 1 0    5 MG   1 0 0    5 MG  -1 0 0
                                     5 MG   0 1 0    5 MG   0-1 0
   4 O    5     4.2100     7.9557    4 O   -1-1 0    4 O    1 1 0    4 O   -1 1 0
                                     4 O    1-1 0    8 O    0 0 0
   4 O   20     4.7069     8.8948    1 MG  -1-1 0    1 MG   1 1 0    1 MG  -1 1 0
                                     1 MG   1-1 0    3 MG   1 0 0    3 MG   0 1 0
                                     3 MG   1-1 0    3 MG  -1 1 0    3 MG  -2 0 0
                                     3 MG   0-2 0    3 MG  -2-1 0    3 MG  -1-2 0
                                     5 MG   1 1 0    5 MG  -1-1 0    5 MG   1-1 0
                                     5 MG  -1 1 0    7 MG  -1-1 0    7 MG  -1 0 0
                                     7 MG   0-1 0    7 MG   0 0 0
   4 O   20     5.1562     9.7438    2 O   -1-2 0    2 O   -2-1 0    2 O    0-2 0
                                     2 O   -2 0 0    2 O   -1 1 0    2 O    1-1 0
                                     2 O    0 1 0    2 O    1 0 0    6 O    1 0 0
                                     6 O    0 1 0    6 O    1-1 0    6 O   -1 1 0
                                     6 O   -2 0 0    6 O    0-2 0    6 O   -2-1 0
                                     6 O   -1-2 0    8 O    1 0 0    8 O   -1 0 0
                                     8 O    0 1 0    8 O    0-1 0

   5 MG   6     2.1050     3.9779    4 O    0 0 0    6 O    0 0 0    6 O   -1 0 0
                                     6 O    0-1 0    6 O   -1-1 0    8 O    0 0 0
   5 MG  12     2.9769     5.6256    3 MG  -1-1 0    3 MG  -1 0 0    3 MG   0-1 0
                                     3 MG   0 0 0    5 MG  -1 0 0    5 MG   1 0 0
                                     5 MG   0-1 0    5 MG   0 1 0    7 MG   0 0 0
                                     7 MG  -1 0 0    7 MG   0-1 0    7 MG  -1-1 0
   5 MG   8     3.6460     6.8899    4 O   -1 0 0    4 O    1 0 0    4 O    0-1 0
                                     4 O    0 1 0    8 O    1 0 0    8 O   -1 0 0
                                     8 O    0 1 0    8 O    0-1 0
   5 MG   6     4.2100     7.9557    1 MG   0 0 0    5 MG  -1-1 0    5 MG   1 1 0
                                     5 MG  -1 1 0    5 MG   1-1 0    9 MG   0 0 0
   5 MG  24     4.7069     8.8948    2 O    0 0 0    2 O   -1 0 0    2 O    0-1 0
                                     2 O   -1-1 0    4 O   -1-1 0    4 O    1 1 0
                                     4 O   -1 1 0    4 O    1-1 0    6 O    1 0 0
                                     6 O    0 1 0    6 O    1-1 0    6 O   -1 1 0
                                     6 O   -2 0 0    6 O    0-2 0    6 O   -2-1 0
                                     6 O   -1-2 0    8 O    1 1 0    8 O   -1-1 0
                                     8 O    1-1 0    8 O   -1 1 0   10 O   -1-1 0
                                    10 O   -1 0 0   10 O    0-1 0   10 O    0 0 0
   5 MG  24     5.1562     9.7438    1 MG  -1 0 0    1 MG   1 0 0    1 MG   0-1 0
                                     1 MG   0 1 0    3 MG  -1-2 0    3 MG  -2-1 0
                                     3 MG   0-2 0    3 MG  -2 0 0    3 MG  -1 1 0
                                     3 MG   1-1 0    3 MG   0 1 0    3 MG   1 0 0
                                     7 MG   1 0 0    7 MG   0 1 0    7 MG   1-1 0
                                     7 MG  -1 1 0    7 MG  -2 0 0    7 MG   0-2 0
                                     7 MG  -2-1 0    7 MG  -1-2 0    9 MG   1 0 0
                                     9 MG  -1 0 0    9 MG   0 1 0    9 MG   0-1 0

   6 O    6     2.1050     3.9779    3 MG   0 0 0    5 MG   0 0 0    5 MG   1 0 0
                                     5 MG   0 1 0    5 MG   1 1 0    7 MG   0 0 0
   6 O   12     2.9769     5.6256    4 O    0 0 0    4 O    1 0 0    4 O    0 1 0
                                     4 O    1 1 0    6 O   -1 0 0    6 O    1 0 0
                                     6 O    0-1 0    6 O    0 1 0    8 O    1 1 0
                                     8 O    1 0 0    8 O    0 1 0    8 O    0 0 0
   6 O    8     3.6460     6.8899    3 MG  -1 0 0    3 MG   1 0 0    3 MG   0-1 0
                                     3 MG   0 1 0    7 MG   1 0 0    7 MG  -1 0 0
                                     7 MG   0 1 0    7 MG   0-1 0
   6 O    6     4.2100     7.9557    2 O    0 0 0    6 O   -1-1 0    6 O    1 1 0
                                     6 O   -1 1 0    6 O    1-1 0   10 O    0 0 0
   6 O   24     4.7069     8.8948    1 MG   1 1 0    1 MG   1 0 0    1 MG   0 1 0
                                     1 MG   0 0 0    3 MG  -1-1 0    3 MG   1 1 0
                                     3 MG  -1 1 0    3 MG   1-1 0    5 MG  -1 0 0
                                     5 MG   0-1 0    5 MG  -1 1 0    5 MG   1-1 0
                                     5 MG   2 0 0    5 MG   0 2 0    5 MG   2 1 0
                                     5 MG   1 2 0    7 MG   1 1 0    7 MG  -1-1 0
                                     7 MG   1-1 0    7 MG  -1 1 0    9 MG   0 0 0
                                     9 MG   1 0 0    9 MG   0 1 0    9 MG   1 1 0
   6 O   24     5.1562     9.7438    2 O   -1 0 0    2 O    1 0 0    2 O    0-1 0
                                     2 O    0 1 0    4 O   -1 0 0    4 O    0-1 0
                                     4 O   -1 1 0    4 O    1-1 0    4 O    2 0 0
                                     4 O    0 2 0    4 O    2 1 0    4 O    1 2 0
                                     8 O    1 2 0    8 O    2 1 0    8 O    0 2 0
                                     8 O    2 0 0    8 O    1-1 0    8 O   -1 1 0
                                     8 O    0-1 0    8 O   -1 0 0   10 O    1 0 0
                                    10 O   -1 0 0   10 O    0 1 0   10 O    0-1 0

 TTTTTTTTTTTTTTTTTTTTTTTTTTTTTT AFTER FIRST TELAPSE        6.46 TCPU        5.43
 MMMMMMMMMMMMMMMMMMMMMMMMMMMMMMMMMMMMMMMMMMMMMMMMMMMMMMMMMMMMMMMMMMMMMMMMMMMMMMM
     ALPHA+BETA ELECTRONS
 MULLIKEN POPULATION ANALYSIS - NO. OF ELECTRONS  100.000000

  ATOM    Z CHARGE  A.O. POPULATION

   1 MG  12 10.038  2.000  2.000  1.997  1.997  1.992  0.011  0.013  0.013
                    0.014
   2 O    8  9.957  2.007  1.182  1.131  1.131  1.152  0.812  0.853  0.853
                    0.834
   3 MG  12 10.025  2.000  1.999  1.995  1.995  1.995  0.007  0.010  0.010
                    0.013
   4 O    8  9.981  2.007  1.176  1.147  1.147  1.147  0.821  0.845  0.845
                    0.846
   5 MG  12 10.021  2.000  1.999  1.995  1.995  1.995  0.006  0.010  0.010
                    0.010
   6 O    8  9.979  2.007  1.176  1.147  1.147  1.147  0.820  0.845  0.845
                    0.845
   7 MG  12 10.025  2.000  1.999  1.995  1.995  1.995  0.007  0.010  0.010
                    0.013
   8 O    8  9.981  2.007  1.176  1.147  1.147  1.147  0.821  0.845  0.845
                    0.846
   9 MG  12 10.038  2.000  2.000  1.997  1.997  1.992  0.011  0.013  0.013
                    0.014
  10 O    8  9.957  2.007  1.182  1.131  1.131  1.152  0.812  0.853  0.853
                    0.834

  ATOM    Z CHARGE  SHELL POPULATION

   1 MG  12 10.038  2.000  7.986  0.052
   2 O    8  9.957  2.007  4.597  3.353
   3 MG  12 10.025  2.000  7.986  0.039
   4 O    8  9.981  2.007  4.617  3.357
   5 MG  12 10.021  2.000  7.986  0.035
   6 O    8  9.979  2.007  4.617  3.355
   7 MG  12 10.025  2.000  7.986  0.039
   8 O    8  9.981  2.007  4.617  3.357
   9 MG  12 10.038  2.000  7.986  0.052
  10 O    8  9.957  2.007  4.597  3.353

 OVERLAP POPULATION CONDENSED TO ATOMS FOR FIRST   6 NEIGHBORS

 ATOM A   1 MG   ATOM B     CELL      R(AB)/AU R(AB)/ANG    OVPOP(AB)
                  2 O    (  0  0  0)     3.978     2.105    -0.006
                  1 MG   ( -1  0  0)     5.626     2.977    -0.000
                  4 O    (  1  0  0)     6.890     3.646     0.000
                  1 MG   ( -1 -1  0)     7.956     4.210    -0.000
                  2 O    (  1  0  0)     8.895     4.707     0.000
                  3 MG   (  1  0  0)     9.744     5.156     0.000

 ATOM A   2 O    ATOM B     CELL      R(AB)/AU R(AB)/ANG    OVPOP(AB)
                  1 MG   (  0  0  0)     3.978     2.105    -0.006
                  2 O    ( -1  0  0)     5.626     2.977    -0.012
                  3 MG   (  1  0  0)     6.890     3.646    -0.000
                  2 O    ( -1 -1  0)     7.956     4.210     0.000
                  1 MG   ( -1  0  0)     8.895     4.707     0.000
                  4 O    (  1  2  0)     9.744     5.156    -0.000

 ATOM A   3 MG   ATOM B     CELL      R(AB)/AU R(AB)/ANG    OVPOP(AB)
                  2 O    (  0  0  0)     3.978     2.105    -0.007
                  1 MG   (  0  0  0)     5.626     2.977    -0.000
                  2 O    ( -1  0  0)     6.890     3.646    -0.000
                  3 MG   ( -1 -1  0)     7.956     4.210    -0.000
                  2 O    ( -1 -1  0)     8.895     4.707     0.000
                  1 MG   ( -1  0  0)     9.744     5.156     0.000

 ATOM A   4 O    ATOM B     CELL      R(AB)/AU R(AB)/ANG    OVPOP(AB)
                  1 MG   (  0  0  0)     3.978     2.105    -0.011
                  2 O    ( -1 -1  0)     5.626     2.977    -0.012
                  1 MG   ( -1  0  0)     6.890     3.646     0.000
                  4 O    ( -1 -1  0)     7.956     4.210     0.000
                  1 MG   ( -1 -1  0)     8.895     4.707     0.000
                  2 O    ( -1 -2  0)     9.744     5.156    -0.000

 ATOM A   5 MG   ATOM B     CELL      R(AB)/AU R(AB)/ANG    OVPOP(AB)
                  4 O    (  0  0  0)     3.978     2.105    -0.011
                  3 MG   ( -1 -1  0)     5.626     2.977    -0.000
                  4 O    ( -1  0  0)     6.890     3.646     0.000
                  1 MG   (  0  0  0)     7.956     4.210    -0.000
                  2 O    (  0  0  0)     8.895     4.707     0.000
                  1 MG   ( -1  0  0)     9.744     5.156     0.000

 ATOM A   6 O    ATOM B     CELL      R(AB)/AU R(AB)/ANG    OVPOP(AB)
                  3 MG   (  0  0  0)     3.978     2.105    -0.011
                  4 O    (  0  0  0)     5.626     2.977    -0.013
                  3 MG   ( -1  0  0)     6.890     3.646     0.000
                  2 O    (  0  0  0)     7.956     4.210     0.000
                  1 MG   (  1  1  0)     8.895     4.707    -0.000
                  2 O    ( -1  0  0)     9.744     5.156    -0.000
 EIGENVECTORS IN FORTRAN UNIT 10
 TTTTTTTTTTTTTTTTTTTTTTTTTTTTTT END         TELAPSE        6.49 TCPU        5.45
 EEEEEEEEEE TERMINATION  DATE 01 09 2018 TIME 11:16:32.7
NODE    0 CPU TIME =         5.448
NODE    1 CPU TIME =         5.460
NODE    2 CPU TIME =         5.460
NODE    3 CPU TIME =         5.460
NODE    4 CPU TIME =         5.456
NODE    5 CPU TIME =         5.456
NODE    6 CPU TIME =         5.460
NODE    7 CPU TIME =         5.460
    TOTAL CPU TIME =        43.663
Sat Sep  1 11:16:32 CEST 2018
/home/crystal/CRYSTAL17/public/svn1196_260218_pub1_0_2/i14o1/bin/Linux-ifort_openmpi_i64_clut/std//Pproperties
ECH3
50
SCALE
2
POT3
50
5
SCALE
2
END
Sat Sep  1 11:16:33 CEST 2018
 PROCESS            1  OF            8  WORKING
 PROCESS            6  OF            8  WORKING
 PROCESS            0  OF            8  WORKING

         
 PROCESS            4  OF            8  WORKING
 *******************************************************************************
 *                                                                             *
 *                               CRYSTAL17                                     *
 *                      public : 1.0.2 - March 1st, 2018                       *
 *                       HTTP://WWW.CRYSTAL.UNITO.IT                           *
 *                                                                             *
 *                              MAIN AUTHORS                                   *
 *                                                                             *
 *  R. DOVESI(1,11), V.R. SAUNDERS(2), C. ROETTI(1,11), R. ORLANDO(1,11),      *
 *  C.M. ZICOVICH-WILSON(1,3), F. PASCALE(4), B. CIVALLERI(1,11),              *
 *  K. DOLL(5), N.M. HARRISON(2,6), I.J. BUSH(7), Ph. D'ARCO(8),               *
 *  M. LLUNELL(9), M. CAUSA'(10), Y. NOEL(8), L. MASCHIO(1,11), A. ERBA(1,11)  *
 *  M. RE'RAT(14), S. CASASSA(1,11)                                            *
 *                                                                             *
 *        CONTRIBUTIONS TO THE CODE HAVE ALSO BEEN GIVEN BY                    *
 *                                                                             *
 *  M. FERRABONE(1,11), M. DE LA PIERRE(1,11), M. FERRERO(1,11),               *
 *  J. BAIMA(1,11), E. ALBANESE(1,11), M.F. PEINTINGER(12), R. BAST(13),       *
 *  B. KIRTMAN(15), V. LACIVITA(1,11), R. DEMICHELIS(1,16)                     *
 *  G. BRANDEBURG(17), S. SALUSTRO(1,11), G. SANSONE(1,11)                     *
 *  M.T. RUGGIERO(18)                                                          *
 *                                                                             *
 * (1) THEORETICAL CHEMISTRY GROUP - UNIVERSITA' DI TORINO - TORINO (ITALY)    *
 * (2) COMPUTATIONAL SCIENCE & ENGINEERING DEPARTMENT - STFC DARESBURY (UK)    *
 * (3) UNIVERSIDAD AUTONOMA DEL ESTADO DE MORELOS - CUERNAVACA (MEXICO)        *
 * (4) UNIVERSITE' DE LORRAINE - NANCY (FRANCE)                                *
 * (5) UNIVERSITAET STUTTGART- STUTTGART (GERMANY)                             *
 * (6) IMPERIAL COLLEGE - LONDON (UK)                                          *
 * (7) OXFORD E-RESEARCH CENTRE - OXFORD (UK)                                  *
 * (8) UPMC - SORBONNE UNIVERSITES - PARIS (FRANCE)                            *
 * (9) UNIVERSIDAD DE BARCELONA - BARCELONA (SPAIN)                            *
 *(10) UNIVERSITA' DI NAPOLI "FEDERICO II" - NAPOLI (ITALY)                    *
 *(11) NIS - NANOSTRUCTURED INTERFACES AND SURFACES - TORINO (ITALY)           *
 *(12) MPI FUER CHEMISCHE ENERGIEKONVERSION - MUELHEIM AN DER RUHR (GERMANY)   *
 *(13) UNIVERSITY OF TROMSO - TROMSO (NORWAY)                                  *
 *(14) UNIVERSITE' DE PAU ET DES PAYS DE L'ADOUR - PAU (FRANCE)                *
 *(15) UNIVERSITY OF CALIFORNIA SANTA BARBARA - SANTA BARBARA (USA)            *
 *(16) CURTIN UNIVERSITY - PERTH (AUSTRALIA)                                   *
 *(17) UNIVERSITY COLLEGE LONDON - LONDON (UK)                                 *
 *(18) CAMBRIDGE UNIVERSITY - CAMBRIDGE (UK)                                   *
 *                                                                             *
 *******************************************************************************
 EEEEEEEEEE STARTING  DATE 01 09 2018 TIME 11:16:34.2
 PROCESS            3  OF            8  WORKING
 PROCESS            7  OF            8  WORKING
 PROCESS            5  OF            8  WORKING
 PROCESS            2  OF            8  WORKING

 *******************************************************************************
 TEST11 - MGO BULK                                                               
 CRYSTAL - PROPERTIES - TYPE OF CALCULATION :  RESTRICTED CLOSED SHELL
 *******************************************************************************
 HARTREE-FOCK HAMILTONIAN

 DIRECT LATTICE VECTOR COMPONENTS (ANGSTROM)
         2.97692    0.00000    0.00000
         0.00000    2.97692    0.00000
         0.00000    0.00000  500.00000

 LATTICE PARAMETERS  (ANGSTROM AND DEGREES) - PRIMITIVE CELL
       A          B          C         ALPHA      BETA     GAMMA        VOLUME
    2.97692    2.97692  500.00000     90.0000   90.0000   90.0000       8.86205
 *******************************************************************************
 N. OF ATOMS PER CELL        10 COULOMB OVERLAP TOL          (T1) 10**   -6
 NUMBER OF SHELLS            30 COULOMB PENETRATION TOL      (T2) 10**   -6
 NUMBER OF AO                90 EXCHANGE OVERLAP TOL         (T3) 10**   -6
 N. OF ELECTRONS PER CELL   100 EXCHANGE PSEUDO OVP (F(G))   (T4) 10**   -6
 CORE ELECTRONS PER CELL     60 EXCHANGE PSEUDO OVP (P(G))   (T5) 10**  -12
 N. OF SYMMETRY OPERATORS    16 POLE ORDER IN MONO ZONE                   4
 *******************************************************************************
   ATOM N.AT.  SHELL    X(A)      Y(A)      Z(A)      EXAD       N.ELECT.
 *******************************************************************************
    1   12 MG    3    -0.000     0.000     4.210   4.000E-01      10.038
    2    8 O     3     1.488     1.488     4.210   2.100E-01       9.957
    3   12 MG    3     1.488     1.488     2.105   4.000E-01      10.025
    4    8 O     3    -0.000     0.000     2.105   2.100E-01       9.981
    5   12 MG    3     0.000    -0.000     0.000   4.000E-01      10.021
    6    8 O     3     1.488     1.488     0.000   2.100E-01       9.979
    7   12 MG    3     1.488     1.488    -2.105   4.000E-01      10.025
    8    8 O     3     0.000    -0.000    -2.105   2.100E-01       9.981
    9   12 MG    3     0.000    -0.000    -4.210   4.000E-01      10.038
   10    8 O     3     1.488     1.488    -4.210   2.100E-01       9.957
 *******************************************************************************
 DE(K)                   0.000E+00  ENERGY LEVEL SHIFTING        0.00000
 TOTAL ENERGY -1.3732612957179E+03  CONVERGENCE ON ENER       -4.008E-08
 KIN. ENERGY   1.3729351482291E+03  VIR. COEFF.           9.99881237E-01
 N. OF SCF CYCLES                7  FERMI ENERGY              -0.341E+00
 WEIGHT OF F(I) IN F(I+1)      30
 SHRINK. FACT.(MONKH.)     8  8  1  SHRINKING FACTOR(GILAT NET)        8
 NUMBER OF K POINTS IN THE IBZ  15  CELL VOLUME (A.U.)         31.646955
 *******************************************************************************

 GCALCO - MAX INDICES DIRECT LATTICE VECTOR    83    83     0
 NO.OF VECTORS CREATED 6999 STARS  686 RMAX   265.35726 BOHR
 TTTTTTTTTTTTTTTTTTTTTTTTTTTTTT gordsh1     TELAPSE        1.03 TCPU        0.02

 MATRIX SIZE: P(G)   66822, F(G)   13650, P(G) IRR    4814, F(G) IRR    2482
 MAX G-VECTOR INDEX FOR 1- AND 2-ELECTRON INTEGRALS  35


 CAPPA:IS1  8;IS2  8;IS3  1; K PTS MONK NET  15; SYMMOPS:K SPACE  16;G SPACE  16


 3D3D3D3D3D3D3D3D3D3D3D3D3D3D3D3D3D3D3D3D3D3D3D3D3D3D3D3D3D3D3D3D3D3D3D3D3D3D3D
 3D DENSITY, GRID IS  50* 50*278
    Z COORDINATE RANGE IS   -15.911 TO    15.911
 TTTTTTTTTTTTTTTTTTTTTTTTTTTTTT CHARGE      TELAPSE        3.43 TCPU        2.41
 TTTTTTTTTTTTTTTTTTTTTTTTTTTTTT ECH3        TELAPSE        3.43 TCPU        2.41
 PLPLPLPLPLPLPLPLPLPLPLPLPLPLPLPLPLPLPLPLPLPLPLPLPLPLPLPLPLPLPLPLPLPLPLPL

  MULTIPOLAR EXPANSION UP TO L=  4
  MULTIPOLE SIGN CONVENTION : ELECTRON CHARGE = +1

 PLPLPLPLPLPLPLPLPLPLPLPLPLPLPLPLPLPLPLPLPLPLPLPLPLPLPLPLPLPLPLPLPLPLPLPL


 MULTIPOLE ANALYSIS BY SHELLS
 L=  0 M=  0   2.000E+00  7.986E+00  5.188E-02  2.007E+00  4.597E+00  3.353E+00
               2.000E+00  7.986E+00  3.933E-02  2.007E+00  4.617E+00  3.357E+00
               2.000E+00  7.986E+00  3.536E-02  2.007E+00  4.617E+00  3.355E+00
               2.000E+00  7.986E+00  3.933E-02  2.007E+00  4.617E+00  3.357E+00
               2.000E+00  7.986E+00  5.188E-02  2.007E+00  4.597E+00  3.353E+00

 MULTIPOLE ANALYSIS BY ATOMS (L=0: NET CHARGE)
 L=  0 M=  0  -1.962E+00  1.957E+00 -1.975E+00  1.981E+00 -1.979E+00  1.979E+00
              -1.975E+00  1.981E+00 -1.962E+00  1.957E+00

 NET ATOMIC CHARGE AND SPHEROPOLE (A.U.)
 ATOM N.          Q           QR2       ATOM N.          Q           QR2
     1    12 -1.96230E+00  4.82443E+00     2     8  1.95663E+00  1.97470E+01
     3    12 -1.97535E+00  4.73519E+00     4     8  1.98102E+00  1.92973E+01
     5    12 -1.97907E+00  4.71706E+00     6     8  1.97906E+00  1.92794E+01
     7    12 -1.97535E+00  4.73519E+00     8     8  1.98102E+00  1.92973E+01
     9    12 -1.96230E+00  4.82443E+00    10     8  1.95663E+00  1.97470E+01

 3D3D3D3D3D3D3D3D3D3D3D3D3D3D3D3D3D3D3D3D3D3D3D3D3D3D3D3D3D3D3D3D3D3D3D3D3D3D3D
 3D DENSITY, GRID IS  50* 50*278
    Z COORDINATE RANGE IS   -15.911 TO    15.911
 TTTTTTTTTTTTTTTTTTTTTTTTTTTTTT POT3        TELAPSE       10.27 TCPU        9.25
 ENDPROP   
 TTTTTTTTTTTTTTTTTTTTTTTTTTTTTT END         TELAPSE       10.27 TCPU        9.25
 EEEEEEEEEE TERMINATION  DATE 01 09 2018 TIME 11:16:43.4
NODE    0 CPU TIME =         9.253
NODE    1 CPU TIME =         8.101
NODE    2 CPU TIME =         8.097
NODE    3 CPU TIME =         8.073
NODE    4 CPU TIME =         8.093
NODE    5 CPU TIME =         8.093
NODE    6 CPU TIME =         8.097
NODE    7 CPU TIME =         8.093
    TOTAL CPU TIME =        65.896
Sat Sep  1 11:16:43 CEST 2018
total 93560
-rw------- 1 civalleri users  9153369 Sep  1 11:16 DENS_CUBE.DAT
-rw-r--r-- 1 civalleri users       38 Sep  1 11:16 INPUT
-rw------- 1 civalleri users  9153364 Sep  1 11:16 POT_CUBE.DAT
-rw------- 1 civalleri users     2112 Sep  1 11:16 PPAN.DAT
-rwxr-xr-x 1 civalleri users 39103347 Sep  1 11:16 Pcrystal-803868
-rwxr-xr-x 1 civalleri users 15596401 Sep  1 11:16 Pproperties-803868
-rw------- 1 civalleri users   139048 Sep  1 11:16 diis_Fg
-rw------- 1 civalleri users        0 Sep  1 11:16 diis_Sk.pe0
-rw------- 1 civalleri users        0 Sep  1 11:16 diis_Sk.pe1
-rw------- 1 civalleri users        0 Sep  1 11:16 diis_Sk.pe2
-rw------- 1 civalleri users        0 Sep  1 11:16 diis_Sk.pe3
-rw------- 1 civalleri users        0 Sep  1 11:16 diis_Sk.pe4
-rw------- 1 civalleri users        0 Sep  1 11:16 diis_Sk.pe5
-rw------- 1 civalleri users        0 Sep  1 11:16 diis_Sk.pe6
-rw------- 1 civalleri users        0 Sep  1 11:16 diis_Sk.pe7
-rw------- 1 civalleri users        0 Sep  1 11:16 diis_err1.pe0
-rw------- 1 civalleri users        0 Sep  1 11:16 diis_err1.pe1
-rw------- 1 civalleri users        0 Sep  1 11:16 diis_err1.pe2
-rw------- 1 civalleri users        0 Sep  1 11:16 diis_err1.pe3
-rw------- 1 civalleri users     6960 Sep  1 11:16 diis_err1.pe4
-rw------- 1 civalleri users     3120 Sep  1 11:16 diis_err1.pe5
-rw------- 1 civalleri users    27696 Sep  1 11:16 diis_err1.pe6
-rw------- 1 civalleri users    32496 Sep  1 11:16 diis_err1.pe7
-rw------- 1 civalleri users        0 Sep  1 11:16 diis_err2.pe0
-rw------- 1 civalleri users        0 Sep  1 11:16 diis_err2.pe1
-rw------- 1 civalleri users        0 Sep  1 11:16 diis_err2.pe2
-rw------- 1 civalleri users        0 Sep  1 11:16 diis_err2.pe3
-rw------- 1 civalleri users     5800 Sep  1 11:16 diis_err2.pe4
-rw------- 1 civalleri users     2600 Sep  1 11:16 diis_err2.pe5
-rw------- 1 civalleri users    23080 Sep  1 11:16 diis_err2.pe6
-rw------- 1 civalleri users    27080 Sep  1 11:16 diis_err2.pe7
-rw------- 1 civalleri users        0 Sep  1 11:16 fort.1.pe0
-rw------- 1 civalleri users        0 Sep  1 11:16 fort.1.pe1
-rw------- 1 civalleri users        0 Sep  1 11:16 fort.1.pe2
-rw------- 1 civalleri users        0 Sep  1 11:16 fort.1.pe3
-rw------- 1 civalleri users        0 Sep  1 11:16 fort.1.pe4
-rw------- 1 civalleri users        0 Sep  1 11:16 fort.1.pe5
-rw------- 1 civalleri users        0 Sep  1 11:16 fort.1.pe6
-rw------- 1 civalleri users        0 Sep  1 11:16 fort.1.pe7
-rw------- 1 civalleri users    50392 Sep  1 11:16 fort.10.pe0
-rw------- 1 civalleri users    67712 Sep  1 11:16 fort.10.pe1
-rw------- 1 civalleri users    94936 Sep  1 11:16 fort.10.pe2
-rw------- 1 civalleri users   125056 Sep  1 11:16 fort.10.pe3
-rw------- 1 civalleri users    30064 Sep  1 11:16 fort.10.pe4
-rw------- 1 civalleri users    32424 Sep  1 11:16 fort.10.pe5
-rw------- 1 civalleri users    74944 Sep  1 11:16 fort.10.pe6
-rw------- 1 civalleri users   106104 Sep  1 11:16 fort.10.pe7
-rw------- 1 civalleri users   109208 Sep  1 11:16 fort.11.pe0
-rw------- 1 civalleri users   109208 Sep  1 11:16 fort.11.pe1
-rw------- 1 civalleri users   109208 Sep  1 11:16 fort.11.pe2
-rw------- 1 civalleri users   109208 Sep  1 11:16 fort.11.pe3
-rw------- 1 civalleri users   109208 Sep  1 11:16 fort.11.pe4
-rw------- 1 civalleri users   109208 Sep  1 11:16 fort.11.pe5
-rw------- 1 civalleri users   109208 Sep  1 11:16 fort.11.pe6
-rw------- 1 civalleri users   109208 Sep  1 11:16 fort.11.pe7
-rw------- 1 civalleri users   534584 Sep  1 11:16 fort.13.pe0
-rw------- 1 civalleri users   534584 Sep  1 11:16 fort.13.pe1
-rw------- 1 civalleri users   534584 Sep  1 11:16 fort.13.pe2
-rw------- 1 civalleri users   534584 Sep  1 11:16 fort.13.pe3
-rw------- 1 civalleri users   534584 Sep  1 11:16 fort.13.pe4
-rw------- 1 civalleri users   534584 Sep  1 11:16 fort.13.pe5
-rw------- 1 civalleri users   534584 Sep  1 11:16 fort.13.pe6
-rw------- 1 civalleri users   534584 Sep  1 11:16 fort.13.pe7
-rw------- 1 civalleri users        0 Sep  1 11:16 fort.15.pe0
-rw------- 1 civalleri users        0 Sep  1 11:16 fort.15.pe1
-rw------- 1 civalleri users        0 Sep  1 11:16 fort.15.pe2
-rw------- 1 civalleri users        0 Sep  1 11:16 fort.15.pe3
-rw------- 1 civalleri users        0 Sep  1 11:16 fort.15.pe4
-rw------- 1 civalleri users        0 Sep  1 11:16 fort.15.pe5
-rw------- 1 civalleri users        0 Sep  1 11:16 fort.15.pe6
-rw------- 1 civalleri users        0 Sep  1 11:16 fort.15.pe7
-rw------- 1 civalleri users        0 Sep  1 11:16 fort.19.pe0
-rw------- 1 civalleri users        0 Sep  1 11:16 fort.19.pe1
-rw------- 1 civalleri users        0 Sep  1 11:16 fort.19.pe2
-rw------- 1 civalleri users        0 Sep  1 11:16 fort.19.pe3
-rw------- 1 civalleri users        0 Sep  1 11:16 fort.19.pe4
-rw------- 1 civalleri users        0 Sep  1 11:16 fort.19.pe5
-rw------- 1 civalleri users        0 Sep  1 11:16 fort.19.pe6
-rw------- 1 civalleri users        0 Sep  1 11:16 fort.19.pe7
-rw------- 1 civalleri users        0 Sep  1 11:16 fort.26.pe0
-rw------- 1 civalleri users        0 Sep  1 11:16 fort.26.pe1
-rw------- 1 civalleri users        0 Sep  1 11:16 fort.26.pe2
-rw------- 1 civalleri users        0 Sep  1 11:16 fort.26.pe3
-rw------- 1 civalleri users        0 Sep  1 11:16 fort.26.pe4
-rw------- 1 civalleri users        0 Sep  1 11:16 fort.26.pe5
-rw------- 1 civalleri users        0 Sep  1 11:16 fort.26.pe6
-rw------- 1 civalleri users        0 Sep  1 11:16 fort.26.pe7
-rw------- 1 civalleri users        0 Sep  1 11:16 fort.28.pe0
-rw------- 1 civalleri users        0 Sep  1 11:16 fort.28.pe1
-rw------- 1 civalleri users        0 Sep  1 11:16 fort.28.pe2
-rw------- 1 civalleri users        0 Sep  1 11:16 fort.28.pe3
-rw------- 1 civalleri users        0 Sep  1 11:16 fort.28.pe4
-rw------- 1 civalleri users        0 Sep  1 11:16 fort.28.pe5
-rw------- 1 civalleri users        0 Sep  1 11:16 fort.28.pe6
-rw------- 1 civalleri users        0 Sep  1 11:16 fort.28.pe7
-rw------- 1 civalleri users        0 Sep  1 11:16 fort.29.pe0
-rw------- 1 civalleri users        0 Sep  1 11:16 fort.29.pe1
-rw------- 1 civalleri users        0 Sep  1 11:16 fort.29.pe2
-rw------- 1 civalleri users        0 Sep  1 11:16 fort.29.pe3
-rw------- 1 civalleri users        0 Sep  1 11:16 fort.29.pe4
-rw------- 1 civalleri users        0 Sep  1 11:16 fort.29.pe5
-rw------- 1 civalleri users        0 Sep  1 11:16 fort.29.pe6
-rw------- 1 civalleri users        0 Sep  1 11:16 fort.29.pe7
-rw------- 1 civalleri users   109208 Sep  1 11:16 fort.3.pe0
-rw------- 1 civalleri users   109208 Sep  1 11:16 fort.3.pe1
-rw------- 1 civalleri users   109208 Sep  1 11:16 fort.3.pe2
-rw------- 1 civalleri users   109208 Sep  1 11:16 fort.3.pe3
-rw------- 1 civalleri users   109208 Sep  1 11:16 fort.3.pe4
-rw------- 1 civalleri users   109208 Sep  1 11:16 fort.3.pe5
-rw------- 1 civalleri users   109208 Sep  1 11:16 fort.3.pe6
-rw------- 1 civalleri users   109208 Sep  1 11:16 fort.3.pe7
-rw------- 1 civalleri users 14039210 Sep  1 11:16 fort.31
-rw------- 1 civalleri users        0 Sep  1 11:16 fort.38.pe0
-rw------- 1 civalleri users        0 Sep  1 11:16 fort.38.pe1
-rw------- 1 civalleri users        0 Sep  1 11:16 fort.38.pe2
-rw------- 1 civalleri users        0 Sep  1 11:16 fort.38.pe3
-rw------- 1 civalleri users        0 Sep  1 11:16 fort.38.pe4
-rw------- 1 civalleri users        0 Sep  1 11:16 fort.38.pe5
-rw------- 1 civalleri users        0 Sep  1 11:16 fort.38.pe6
-rw------- 1 civalleri users        0 Sep  1 11:16 fort.38.pe7
-rw------- 1 civalleri users        0 Sep  1 11:16 fort.40.pe0
-rw------- 1 civalleri users        0 Sep  1 11:16 fort.40.pe1
-rw------- 1 civalleri users        0 Sep  1 11:16 fort.40.pe2
-rw------- 1 civalleri users        0 Sep  1 11:16 fort.40.pe3
-rw------- 1 civalleri users        0 Sep  1 11:16 fort.40.pe4
-rw------- 1 civalleri users        0 Sep  1 11:16 fort.40.pe5
-rw------- 1 civalleri users        0 Sep  1 11:16 fort.40.pe6
-rw------- 1 civalleri users        0 Sep  1 11:16 fort.40.pe7
-rw------- 1 civalleri users     5072 Sep  1 11:16 fort.61.pe0
-rw------- 1 civalleri users     9408 Sep  1 11:16 fort.61.pe1
-rw------- 1 civalleri users    11008 Sep  1 11:16 fort.61.pe2
-rw------- 1 civalleri users    10272 Sep  1 11:16 fort.61.pe3
-rw------- 1 civalleri users    10144 Sep  1 11:16 fort.61.pe4
-rw------- 1 civalleri users    10144 Sep  1 11:16 fort.61.pe5
-rw------- 1 civalleri users    11008 Sep  1 11:16 fort.61.pe6
-rw------- 1 civalleri users     9408 Sep  1 11:16 fort.61.pe7
-rw------- 1 civalleri users     6352 Sep  1 11:16 fort.62.pe0
-rw------- 1 civalleri users     6400 Sep  1 11:16 fort.62.pe1
-rw------- 1 civalleri users     7984 Sep  1 11:16 fort.62.pe2
-rw------- 1 civalleri users     8736 Sep  1 11:16 fort.62.pe3
-rw------- 1 civalleri users     6688 Sep  1 11:16 fort.62.pe4
-rw------- 1 civalleri users     6784 Sep  1 11:16 fort.62.pe5
-rw------- 1 civalleri users     9136 Sep  1 11:16 fort.62.pe6
-rw------- 1 civalleri users     9456 Sep  1 11:16 fort.62.pe7
-rw------- 1 civalleri users    50392 Sep  1 11:16 fort.8.pe0
-rw------- 1 civalleri users    67712 Sep  1 11:16 fort.8.pe1
-rw------- 1 civalleri users    94936 Sep  1 11:16 fort.8.pe2
-rw------- 1 civalleri users   125056 Sep  1 11:16 fort.8.pe3
-rw------- 1 civalleri users    30064 Sep  1 11:16 fort.8.pe4
-rw------- 1 civalleri users    32424 Sep  1 11:16 fort.8.pe5
-rw------- 1 civalleri users    74944 Sep  1 11:16 fort.8.pe6
-rw------- 1 civalleri users   106104 Sep  1 11:16 fort.8.pe7
-rw------- 1 civalleri users        0 Sep  1 11:16 fort.82.pe0
-rw------- 1 civalleri users        0 Sep  1 11:16 fort.82.pe1
-rw------- 1 civalleri users        0 Sep  1 11:16 fort.82.pe2
-rw------- 1 civalleri users        0 Sep  1 11:16 fort.82.pe3
-rw------- 1 civalleri users        0 Sep  1 11:16 fort.82.pe4
-rw------- 1 civalleri users        0 Sep  1 11:16 fort.82.pe5
-rw------- 1 civalleri users        0 Sep  1 11:16 fort.82.pe6
-rw------- 1 civalleri users        0 Sep  1 11:16 fort.82.pe7
-rw------- 1 civalleri users        0 Sep  1 11:16 fort.83.pe0
-rw------- 1 civalleri users        0 Sep  1 11:16 fort.83.pe1
-rw------- 1 civalleri users        0 Sep  1 11:16 fort.83.pe2
-rw------- 1 civalleri users        0 Sep  1 11:16 fort.83.pe3
-rw------- 1 civalleri users        0 Sep  1 11:16 fort.83.pe4
-rw------- 1 civalleri users        0 Sep  1 11:16 fort.83.pe5
-rw------- 1 civalleri users        0 Sep  1 11:16 fort.83.pe6
-rw------- 1 civalleri users        0 Sep  1 11:16 fort.83.pe7
-rw------- 1 civalleri users   179492 Sep  1 11:16 fort.9
-rw------- 1 civalleri users    46536 Sep  1 11:16 fort.95.pe0
-rw------- 1 civalleri users    46536 Sep  1 11:16 fort.95.pe1
-rw------- 1 civalleri users    46536 Sep  1 11:16 fort.95.pe2
-rw------- 1 civalleri users    46536 Sep  1 11:16 fort.95.pe3
-rw------- 1 civalleri users    46536 Sep  1 11:16 fort.95.pe4
-rw------- 1 civalleri users    46536 Sep  1 11:16 fort.95.pe5
-rw------- 1 civalleri users    46536 Sep  1 11:16 fort.95.pe6
-rw------- 1 civalleri users    46536 Sep  1 11:16 fort.95.pe7
-rw------- 1 civalleri users   460717 Sep  1 11:16 fort.98
