/home/piero/bin/CRY06/Pcrystal
/scr/piero/CRY_data/tmp_p23011
HEMATITE 1 -1 -1 1
CRYSTAL
0 0 0
167
5.0380  13.7720
2
26 0. 0. 0.3553
8 0.3059 0. 0.2500
MODISYMM
4
1 1 2 -1 3 -1 4 1
OPTGEOM
FULLOPTG
END
ENDG
26 7
0 0 8 2.0 1.0
 315379.0     0.000227
  45690.0     0.0019
   9677.3     0.0111
   2520.88    0.0501
    759.746   0.1705
    262.964   0.36924
    102.801   0.4033
     42.9733  0.1434
0 1 6 8.0 1.0
    798.262  -0.0052  0.00850
    191.162  -0.068   0.0608
     63.6885 -0.1314  0.2114
     25.3625  0.2517  0.3944
     10.7338  0.6433  0.398
      3.764   0.2825  0.2251
0 1 4 8.0 1.0
     48.1434  0.0122 -0.0215
     17.4579 -0.2278 -0.085
      6.9972 -0.8801  0.201
      3.0791  0.9755  1.3024
0 3 4 5.0 1.0
     30.4821  0.0583
      8.692   0.2591
      3.1008  0.5162
      1.1709  0.5656
0 1 1 0.0 1.0
      1.3137  1.0     1.0
0 1 1 0.0 1.0
      0.5625  1.0     1.0
0 3 1 0.0 1.0
      0.4345  1.0   
8 4
0 0 8 2.0 1.0
 8020.0    0.00108
 1338.0    0.00804
  255.4    0.05324
   69.22   0.1681
   23.90   0.3581
    9.264  0.3855
    3.851  0.1468
    1.212  0.0728
0 1 4 8.0 1.0
   49.43  -0.00883 0.00958
   10.47  -0.0915  0.0696
    3.235 -0.0402  0.2065
    1.217  0.379   0.347
0 1 1 0.0 1.0
    0.5    1.0     1.0
0 1 1 0.0 1.0
    0.191  1.0     1.0
99 0
ENDB
UHF
SHRINK
6 6
ATOMSPIN
4 
1 1 2 -1 3 -1 4 1
SPINLOCK
0  50 
LEVSHIFT
3 1
FMIXING
60
MAXCYCLE
700
PPAN
END
Tue Mar  9 12:49:38 GMT 2010
directory scratch (integrals and temporary files) /home/piero/bin/CRY06_tmp
 PROCESS            0  OF            2  WORKING

         
 *******************************************************************************
 *                                                                             *
 *                                CRYSTAL06                                    *
 *                              Release : 1.0                                  *
 *                      V1.0.2 - parallel executable                           *
 *                                                                             *
 *                                                                             *
 *                                                                             *
 *                              MAIN AUTHORS                                   *
 *                                                                             *
 *    R. DOVESI(1,10), V.R. SAUNDERS(2), C. ROETTI(1,10), R. ORLANDO (1,3),    *
 *  C.M. ZICOVICH-WILSON(1,4), F. PASCALE(5), B. CIVALLERI(1,10), K. DOLL(6),  *
 *       N.M. HARRISON(2,7), I. J. BUSH(2), Ph. D'ARCO(8), M. LLUNELL(9)       *
 *                                                                             *
 * (1) THEORETICAL CHEMISTRY GROUP - UNIVERSITA' DI TORINO - TORINO (ITALY)    *
 *      http://www.crystal.unito.it                                            *
 * (2) COMPUTATIONAL SCIENCE & ENGINEERING DEPARTMENT - CCLRC DARESBURY (UK)   *
 *     http://www.cse.clrc.ac.uk/cmg/CRYSTAL/                                  *
 * (3) UNIVERSITA' DEL PIEMONTE ORIENTALE - ALESSANDRIA (ITALY)                *
 * (4) UNIVERSIDAD AUTONOMA DEL ESTADO DE MORELOS - CUERNAVACA (MEXICO)        *
 * (5) UNIVERSITE' HENRI POINCARE' - NANCY (FRANCE)                            *
 * (6) MPI FUER FESTKOERPERFORSCHUNG - STUTTGART (GERMANY)                     *
 * (7) IMPERIAL COLLEGE - LONDON (UK)                                          *
 * (8) UNIVERSITE' PIERRE ET MARIE CURIE - PARIS (FRANCE)                      *
 * (9) UNIVERSIDAD DE BARCELONA - BARCELONA (SPAIN)                            *
 *(10) NIS - NANOSTRUCTURED INTERFACES AND SURFACES - TORINO (ITALY)           *
 *     http://www.crystal.unito.it                                             *
 *******************************************************************************
 EEEEEEEEEE STARTING  DATE 09 03 2010 TIME 12:49:40.1
 HEMATITE 1 -1 -1 1                                                              

 CRYSTAL CALCULATION
 (INPUT ACCORDING TO THE INTERNATIONAL TABLES FOR X-RAY CRYSTALLOGRAPHY)
 CRYSTAL FAMILY                       :  HEXAGONAL   
 CRYSTAL CLASS  (GROTH - 1921)        :  DITRIGONAL SCALENOHEDRAL             

 SPACE GROUP (CENTROSYMMETRIC)        :  R -3 C          

 LATTICE PARAMETERS  (ANGSTROMS AND DEGREES) - CONVENTIONAL CELL
        A           B           C        ALPHA        BETA       GAMMA
     5.03800     5.03800    13.77200    90.00000    90.00000   120.00000


 NUMBER OF IRREDUCIBLE ATOMS IN THE CONVENTIONAL CELL:    2

 INPUT COORDINATES

 ATOM AT. N.              COORDINATES
   1  26     0.000000000000E+00  0.000000000000E+00  3.553000000000E-01
   2   8     3.059000000000E-01  0.000000000000E+00  2.500000000000E-01

 *******************************************************************************

 << INFORMATION >>: FROM NOW ON, ALL COORDINATES REFER TO THE PRIMITIVE CELL

 *******************************************************************************

 LATTICE PARAMETERS  (ANGSTROMS AND DEGREES) - PRIMITIVE CELL
       A          B          C         ALPHA     BETA     GAMMA        VOLUME
    5.43458    5.43458    5.43458    55.22805  55.22805  55.22805    100.907331

 COORDINATES OF THE EQUIVALENT ATOMS (FRACTIONARY UNITS)

 N. ATOM EQUIV AT. N.          X                  Y                  Z

   1   1   1   26 FE    3.55300000000E-01  3.55300000000E-01  3.55300000000E-01
   2   1   2   26 FE    1.44700000000E-01  1.44700000000E-01  1.44700000000E-01
   3   1   3   26 FE   -3.55300000000E-01 -3.55300000000E-01 -3.55300000000E-01
   4   1   4   26 FE   -1.44700000000E-01 -1.44700000000E-01 -1.44700000000E-01

   5   2   1    8 O    -4.44100000000E-01 -5.59000000000E-02  2.50000000000E-01
   6   2   2    8 O     2.50000000000E-01 -4.44100000000E-01 -5.59000000000E-02
   7   2   3    8 O    -5.59000000000E-02  2.50000000000E-01 -4.44100000000E-01
   8   2   4    8 O     4.44100000000E-01  5.59000000000E-02 -2.50000000000E-01
   9   2   5    8 O    -2.50000000000E-01  4.44100000000E-01  5.59000000000E-02
  10   2   6    8 O     5.59000000000E-02 -2.50000000000E-01  4.44100000000E-01

 NUMBER OF SYMMETRY OPERATORS         :   12
 *******************************************************************************
 * GEOMETRY EDITING - INPUT COORDINATES ARE GIVEN IN ANGSTROM          
 *******************************************************************************

 GEOMETRY NOW FULLY CONSISTENT WITH THE GROUP
 SSSSSSSSSSSSSSSSSSSSSSSSSSSSSSSSSSSSSSSSSSSSSSSSSSSSSSSSSSSSSSSSSSSSSSSSSSSSSS
 REDUCTION OF SYMMETRY - ATOMIC LABELS SET TO (ATOM, AT. N., LABEL)
   1( 26) 1;   2( 26)-1;   3( 26)-1;   4( 26) 1;   5(  8) 0;   6(  8) 0;
   7(  8) 0;   8(  8) 0;   9(  8) 0;  10(  8) 0;
 THE NUMBER OF SYMMETRY OPERATORS HAS BEEN REDUCED FROM 12 TO  6
 *******************************************************************************
 INFORMATION **** FULLOPTG **** full optimization, atoms and cell
 *******************************************************************************
 COMBINED CELL/ATOM OPTIMIZATION CONTROL

 MAXIMUM GRADIENT COMPONENT   0.00045 MAXIMUM DISPLACEMENT COMPONENT     0.00030
 R.M.S. OF GRADIENT COMPONENT 0.00180 R.M.S. OF DISPLACEMENT COMPONENTS  0.00120
 THRESHOLD ON ENERGY CHANGE 0.100E-06 EXTRAPOLATING POLYNOMIAL ORDER           2
 MAXIMUM ALLOWED NUMBER OF STEPS  100 SORTING OF ENERGY POINTS:               NO
 ANALYTICAL  GRADIENT                 HESSIAN UPDATING                      BFGS
 STEP SIZE NUMERICAL GRADIENT 0.00100
 INITIAL HESSIAN MATRIX: SCHLEGEL MODEL 2
 *******************************************************************************


 GCALCO - MAX INDICES DIRECT LATTICE VECTOR  14  14  14
 NO.OF VECTORS CREATED 6999 STARS  522 RMAX   104.67758 BOHR

 GEOMETRY FOR WAVE FUNCTION - DIMENSIONALITY OF THE SYSTEM    3
 (NON PERIODIC DIRECTION: LATTICE PARAMETER FORMALLY SET TO 500)
 *******************************************************************************
 LATTICE PARAMETERS (ANGSTROMS AND DEGREES) - BOHR = 0.5291772083 ANGSTROM
 PRIMITIVE CELL - CENTRING CODE 7/1 VOLUME=   100.907331 - DENSITY 5.261 g/cm^3
         A              B              C           ALPHA      BETA       GAMMA 
     5.43458386     5.43458386     5.43458386    55.228050  55.228050  55.228050
 *******************************************************************************
 ATOMS IN THE ASYMMETRIC UNIT    3 - ATOMS IN THE UNIT CELL:   10
     ATOM              X/A                 Y/B                 Z/C    
 *******************************************************************************
   1 T  26 FE    3.553000000000E-01  3.553000000000E-01  3.553000000000E-01
   2 T  26 FE1   1.447000000000E-01  1.447000000000E-01  1.447000000000E-01
   3 F  26 FE1  -3.553000000000E-01 -3.553000000000E-01 -3.553000000000E-01
   4 F  26 FE   -1.447000000000E-01 -1.447000000000E-01 -1.447000000000E-01
   5 T   8 O    -4.441000000000E-01 -5.590000000000E-02  2.500000000000E-01
   6 F   8 O     2.500000000000E-01 -4.441000000000E-01 -5.590000000000E-02
   7 F   8 O    -5.590000000000E-02  2.500000000000E-01 -4.441000000000E-01
   8 F   8 O     4.441000000000E-01  5.590000000000E-02 -2.500000000000E-01
   9 F   8 O    -2.500000000000E-01  4.441000000000E-01  5.590000000000E-02
  10 F   8 O     5.590000000000E-02 -2.500000000000E-01  4.441000000000E-01

 TRANSFORMATION MATRIX PRIMITIVE-CRYSTALLOGRAPHIC CELL
  1.0000  0.0000  1.0000 -1.0000  1.0000  1.0000  0.0000 -1.0000  1.0000

 *******************************************************************************
 CRYSTALLOGRAPHIC CELL (VOLUME=        302.72199168)
         A              B              C           ALPHA      BETA       GAMMA 
     5.03800000     5.03800000    13.77200000    90.000000  90.000000 120.000000

 COORDINATES IN THE CRYSTALLOGRAPHIC CELL
     ATOM              X/A                 Y/B                 Z/C    
 *******************************************************************************
   1 T  26 FE    3.333333333333E-01 -3.333333333333E-01  2.196666666667E-02
   2 T  26 FE1   8.079301516836E-17  5.412105792110E-18  1.447000000000E-01
   3 F  26 FE1  -3.333333333333E-01  3.333333333333E-01 -2.196666666667E-02
   4 F  26 FE    5.386201011224E-17  2.693100505612E-17 -1.447000000000E-01
   5 T   8 O    -3.607666666667E-01 -3.333333333333E-01 -8.333333333333E-02
   6 F   8 O     3.333333333333E-01 -2.743333333333E-02 -8.333333333333E-02
   7 F   8 O     2.743333333333E-02  3.607666666667E-01 -8.333333333333E-02
   8 F   8 O     3.607666666667E-01  3.333333333333E-01  8.333333333333E-02
   9 F   8 O    -3.333333333333E-01  2.743333333333E-02  8.333333333333E-02
  10 F   8 O    -2.743333333333E-02 -3.607666666667E-01  8.333333333333E-02

 T = ATOM BELONGING TO THE ASYMMETRIC UNIT

 ****   6 SYMMOPS - TRANSLATORS IN FRACTIONARY UNITS
  V INV                   ROTATION MATRICES                       TRANSLATOR
  1  1  1.00  0.00  0.00  0.00  1.00  0.00  0.00  0.00  1.00    0.00  0.00  0.00
  2  3  0.00  0.00  1.00  1.00  0.00  0.00  0.00  1.00  0.00    0.00  0.00  0.00
  3  2  0.00  1.00  0.00  0.00  0.00  1.00  1.00  0.00  0.00    0.00  0.00  0.00
  4  4  0.00  1.00  0.00  1.00  0.00  0.00  0.00  0.00  1.00    0.50  0.50  0.50
  5  5  1.00  0.00  0.00  0.00  0.00  1.00  0.00  1.00  0.00    0.50  0.50  0.50
  6  6  0.00  0.00  1.00  0.00  1.00  0.00  1.00  0.00  0.00    0.50  0.50  0.50

 DIRECT LATTICE VECTORS CARTESIAN COMPONENTS (ANGSTROM)
          X                    Y                    Z
   0.290869065618E+01   0.000000000000E+00   0.459066666667E+01
  -0.145434532809E+01   0.251900000000E+01   0.459066666667E+01
  -0.145434532809E+01  -0.251900000000E+01   0.459066666667E+01


 CARTESIAN COORDINATES - PRIMITIVE CELL
 *******************************************************************************
 *      ATOM          X(ANGSTROM)         Y(ANGSTROM)         Z(ANGSTROM)
 *******************************************************************************
   1    26 FE   -2.908690656177E+00  0.000000000000E+00  3.025249333333E-01
   2    26 FE1   3.525028324569E-16 -1.762514162285E-16  1.992808400000E+00
   3    26 FE1  -1.454345328089E+00 -2.519000000000E+00 -3.025249333333E-01
   4    26 FE    2.350018883046E-16  0.000000000000E+00 -1.992808400000E+00
   5     8 O    -1.574037948590E+00 -7.705621000000E-01 -1.147666666667E+00
   6     8 O     1.454345328089E+00 -9.778758000000E-01 -1.147666666667E+00
   7     8 O     1.196926205017E-01  1.748437900000E+00 -1.147666666667E+00
   8     8 O     1.574037948590E+00  7.705621000000E-01  1.147666666667E+00
   9     8 O    -1.454345328089E+00  9.778758000000E-01  1.147666666667E+00
  10     8 O    -1.196926205017E-01 -1.748437900000E+00  1.147666666667E+00

 *******************************************************************************
 LOCAL ATOMIC FUNCTIONS BASIS SET
 *******************************************************************************
   ATOM  X(AU)  Y(AU)  Z(AU)    NO. TYPE  EXPONENT  S COEF   P COEF   D/F/G COEF
 *******************************************************************************
   1 FE -5.497  0.000  0.572
                                  1 S  
                                         3.154E+05 2.270E-04 0.000E+00 0.000E+00
                                         4.569E+04 1.900E-03 0.000E+00 0.000E+00
                                         9.677E+03 1.110E-02 0.000E+00 0.000E+00
                                         2.521E+03 5.010E-02 0.000E+00 0.000E+00
                                         7.597E+02 1.705E-01 0.000E+00 0.000E+00
                                         2.630E+02 3.692E-01 0.000E+00 0.000E+00
                                         1.028E+02 4.033E-01 0.000E+00 0.000E+00
                                         4.297E+01 1.434E-01 0.000E+00 0.000E+00
                             2-   5 SP 
                                         7.983E+02-5.200E-03 8.500E-03 0.000E+00
                                         1.912E+02-6.800E-02 6.080E-02 0.000E+00
                                         6.369E+01-1.314E-01 2.114E-01 0.000E+00
                                         2.536E+01 2.517E-01 3.944E-01 0.000E+00
                                         1.073E+01 6.433E-01 3.980E-01 0.000E+00
                                         3.764E+00 2.825E-01 2.251E-01 0.000E+00
                             6-   9 SP 
                                         4.814E+01 1.220E-02-2.150E-02 0.000E+00
                                         1.746E+01-2.278E-01-8.500E-02 0.000E+00
                                         6.997E+00-8.801E-01 2.010E-01 0.000E+00
                                         3.079E+00 9.755E-01 1.302E+00 0.000E+00
                            10-  14 D  
                                         3.048E+01 0.000E+00 0.000E+00 5.830E-02
                                         8.692E+00 0.000E+00 0.000E+00 2.591E-01
                                         3.101E+00 0.000E+00 0.000E+00 5.162E-01
                                         1.171E+00 0.000E+00 0.000E+00 5.656E-01
                            15-  18 SP 
                                         1.314E+00 1.000E+00 1.000E+00 0.000E+00
                            19-  22 SP 
                                         5.625E-01 1.000E+00 1.000E+00 0.000E+00
                            23-  27 D  
                                         4.345E-01 0.000E+00 0.000E+00 1.000E+00
   2 FE  0.000  0.000  3.766
   3 FE -2.748 -4.760 -0.572
   4 FE  0.000  0.000 -3.766
   5 O  -2.975 -1.456 -2.169
                                109 S  
                                         8.020E+03 1.080E-03 0.000E+00 0.000E+00
                                         1.338E+03 8.040E-03 0.000E+00 0.000E+00
                                         2.554E+02 5.324E-02 0.000E+00 0.000E+00
                                         6.922E+01 1.681E-01 0.000E+00 0.000E+00
                                         2.390E+01 3.581E-01 0.000E+00 0.000E+00
                                         9.264E+00 3.855E-01 0.000E+00 0.000E+00
                                         3.851E+00 1.468E-01 0.000E+00 0.000E+00
                                         1.212E+00 7.280E-02 0.000E+00 0.000E+00
                           110- 113 SP 
                                         4.943E+01-8.830E-03 9.580E-03 0.000E+00
                                         1.047E+01-9.150E-02 6.960E-02 0.000E+00
                                         3.235E+00-4.020E-02 2.065E-01 0.000E+00
                                         1.217E+00 3.790E-01 3.470E-01 0.000E+00
                           114- 117 SP 
                                         5.000E-01 1.000E+00 1.000E+00 0.000E+00
                           118- 121 SP 
                                         1.910E-01 1.000E+00 1.000E+00 0.000E+00
   6 O   2.748 -1.848 -2.169
   7 O   0.226  3.304 -2.169
   8 O   2.975  1.456  2.169
   9 O  -2.748  1.848  2.169
  10 O  -0.226 -3.304  2.169
 INFORMATION **** UHF **** SPIN POLARIZED SOLUTIONS ALLOWED
 SSSSSSSSSSSSSSSSSSSSSSSSSSSSSSSSSSSSSSSSSSSSSSSSSSSSSSSSSSSSSSSSSSSSSSSSSSSSSS
 ATOMIC SPINS SET TO (ATOM, AT. N., SPIN)
   1  26 1   2  26-1   3  26-1   4  26 1   5   8 0   6   8 0   7   8 0   8   8 0
   9   8 0  10   8 0
 ALPHA-BETA ELECTRONS LOCKED TO   0 FOR  50 SCF CYCLES
 INFORMATION **** MAXCYCLE **** MAX NUMBER OF SCF CYCLES SET TO       700
 INFORMATION **** PPAN ****  MULLIKEN POPULATION ANALYSIS AT THE END OF SCF
 *******************************************************************************
 N. OF ATOMS PER CELL       10  COULOMB OVERLAP TOL         (T1) 10** -6
 NUMBER OF SHELLS           52  COULOMB PENETRATION TOL     (T2) 10** -6
 NUMBER OF AO              186  EXCHANGE OVERLAP TOL        (T3) 10** -6
 N. OF ELECTRONS PER CELL  152  EXCHANGE PSEUDO OVP (F(G))  (T4) 10** -6
 CORE ELECTRONS PER CELL    84  EXCHANGE PSEUDO OVP (P(G))  (T5) 10**-12
 N. OF SYMMETRY OPERATORS    6  POLE ORDER IN MONO ZONE                4
 *******************************************************************************
 TYPE OF CALCULATION :  UNRESTRICTED OPEN SHELL
 HARTREE-FOCK HAMILTONIAN
 EIGENVALUE LEVEL SHIFTING OF  0.300 HARTREE
 LOCKING - FERMI ENERGY ALTERED BY LEVEL SHIFTER

 CAPPA: IS1=  6 IS2=  6 IS3=  6K POINTS MONKHORST NET   32 SYMMOPS K SPACE 12 SYMMOPS G SPACE  6


 CAPPA1: ISJ1=  6 ISJ2=  6 ISJ3=  6K POINTS GILAT NET   32 SYMMOPS K SPACE 12 SYMMOPS G SPACE  6

 *******************************************************************************
 MAX NUMBER OF SCF CYCLES     700  CONVERGENCE ON DELTAP        10**-16
 WEIGHT OF F(I) IN F(I+1)      60% CONVERGENCE ON ENERGY        10**- 7
 EIGENVALUE LEVEL SHIFTING OF  0.300 HARTREE
 LOCKING - FERMI ENERGY ALTERED BY LEVEL SHIFTER
 SHRINK. FACT.(MONKH.)    6  6  6  NUMBER OF K POINTS IN THE IBZ     32
 SHRINKING FACTOR(GILAT NET)    6  NUMBER OF K POINTS(GILAT NET)     32
 *******************************************************************************
 *** K POINTS COORDINATES (OBLIQUE COORDINATES IN UNITS OF IS =  6)
   1-R(  0  0  0)   2-C(  1  0  0)   3-C(  2  0  0)   4-R(  3  0  0)
   5-C(  1  1  0)   6-C(  2  1  0)   7-C(  3  1  0)   8-C(  4  1  0)
   9-C(  5  1  0)  10-C(  2  2  0)  11-C(  3  2  0)  12-C(  4  2  0)
  13-R(  3  3  0)  14-C(  1  1  1)  15-C(  2  1  1)  16-C(  3  1  1)
  17-C(  4  1  1)  18-C(  5  1  1)  19-C(  2  2  1)  20-C(  3  2  1)
  21-C(  4  2  1)  22-C(  5  2  1)  23-C(  3  3  1)  24-C(  4  3  1)
  25-C(  5  3  1)  26-C(  4  4  1)  27-C(  2  2  2)  28-C(  3  2  2)
  29-C(  4  2  2)  30-C(  3  3  2)  31-C(  4  3  2)  32-R(  3  3  3)

 DIRECT LATTICE VECTORS COMPON. (A.U.)     RECIP. LATTICE VECTORS COMPON. (A.U.) 
        X            Y            Z              X            Y            Z
    5.4966287    0.0000000    8.6751028      0.7620653    0.0000000    0.2414260
   -2.7483144    4.7602201    8.6751028     -0.3810327    0.6599679    0.2414260
   -2.7483144   -4.7602201    8.6751028     -0.3810327   -0.6599679    0.2414260

 DISK SPACE FOR EIGENVECTORS (FTN 10)    2075760 REALS

 SYMMETRY ADAPTION OF THE BLOCH FUNCTIONS ENABLED
 TTTTTTTTTTTTTTTTTTTTTTTTTTTTTT gordsh1     TELAPSE        0.29 TCPU        0.02

 DIMENSIONS  P(G)=  210862 F(G)=   37614 P(G),F(G) (IRR)   20347
 MAX G-VECTOR INDEX FOR 1- AND 2-ELECTRON INTEGRALS  85

 INFORMATION **** GENBUF **** COULOMB BIPO BUFFER LENGTH (WORDS) =    943850
 TTTTTTTTTTTTTTTTTTTTTTTTTTTTTT INPUT       TELAPSE        0.29 TCPU        0.03

 NEIGHBORS OF THE NON-EQUIVALENT ATOMS

 N = NUMBER OF NEIGHBORS AT DISTANCE R
    ATOM  N     R/ANG      R/AU   NEIGHBORS (ATOM LABELS AND CELL INDICES)
   1 FE   3     1.9457     3.6768   8 O   -1 0 1   9 O    0 0 0  10 O   -1 1 0
   1 FE   3     2.1162     3.9990   5 O    0 0 0   6 O   -1 1 0   7 O   -1 0 1
   1 FE   1     2.9004     5.4809   2 FE  -1 0 0
   1 FE   3     2.9710     5.6143   3 FE   0 0 0   3 FE  -1 1 0   3 FE   0 1-1
   1 FE   3     3.3642     6.3573   2 FE   0 0 0   2 FE  -1 0 1   2 FE  -1 1 0
   1 FE   3     3.3985     6.4222   8 O   -1 1 0   9 O   -1 0 1  10 O    0 0 0

   2 FE   3     1.9457     3.6768   8 O    0 0 0   9 O    0 0 0  10 O    0 0 0
   2 FE   3     2.1162     3.9990   5 O    1 0 0   6 O    0 1 0   7 O    0 0 1
   2 FE   1     2.9004     5.4809   1 FE   1 0 0
   2 FE   3     2.9710     5.6143   4 FE   1 0 0   4 FE   0 1 0   4 FE   0 0 1
   2 FE   3     3.3642     6.3573   1 FE   0 0 0   1 FE   1 0-1   1 FE   1-1 0
   2 FE   3     3.3985     6.4222   8 O   -1 0 1   9 O    1-1 0  10 O    0 1-1

   5 O    2     1.9457     3.6768   3 FE   0 0 0   4 FE   0 0 0
   5 O    2     2.1162     3.9990   1 FE   0 0 0   2 FE  -1 0 0
   5 O    2     2.6693     5.0443   6 O   -1 1 0   7 O   -1 0 1
   5 O    2     2.7751     5.2441   8 O   -1 0 1   8 O   -1 0 0
   5 O    4     2.8879     5.4573   9 O    0 0 0   9 O    0-1 0  10 O    0 0 0
                                   10 O   -1 0 0
   5 O    4     3.0355     5.7362   6 O    0 0 0   6 O   -1 0 1   7 O    0 0 0
                                    7 O    0-1 1


 SYMMETRY ALLOWED ELASTIC DISTORTION 1
  0.5773503  0.0000000  0.0000000
  0.0000000  0.5773503  0.0000000
  0.0000000  0.0000000  0.5773503

 SYMMETRY ALLOWED ELASTIC DISTORTION 2
  0.4082483  0.0000000  0.0000000
  0.0000000  0.4082483  0.0000000
  0.0000000  0.0000000 -0.8164966

 SYMMETRY ALLOWED INTERNAL DEGREE(S) OF FREEDOM:   4
crystal executable from directory /home/piero/bin/CRY06
test cases input: extensions .d12 , .d3
CRY2K6_GRA graphical scripts /home/piero/bin/CRY06/crgra2006/maps06, doss06, band06
CRY2K6_UTILS miscellanea utilities /home/piero/bin/CRY06/utils06/runcry06 runprop06 spacg
 PROCESS            1  OF            2  WORKING
 TTTTTTTTTTTTTTTTTTTTTTTTTTTTTT SYMM        TELAPSE        0.32 TCPU        0.05
 TTTTTTTTTTTTTTTTTTTTTTTTTTTTTT INT_SCREEN  TELAPSE        0.32 TCPU        0.06
 *******************************************************************************
 COORDINATE AND CELL OPTIMIZATION - POINT    1
 INFORMATION **** GENBUF **** COULOMB BIPO BUFFER LENGTH (WORDS) =    943850
 INFORMATION **** EXCBUF **** EXCH. BIPO BUFFER: WORDS USED =    360000
 WARNING **** EXCBUF **** EXCH. BIPO BUFFER TOO SMALL - TO AVOID I/O SET EXCHSIZE =    619956
 TTTTTTTTTTTTTTTTTTTTTTTTTTTTTT MONIRR      TELAPSE        0.72 TCPU        0.45

  GAUSS70 FOR COULOMB   GAUSS70 FOR EXCHANGE

 UNRESTRICTED OPEN SHELL OPTION

 **SHELL_ORTHODOX** SPACE FOR BIEL. INTEGRALS   154 BUFFERS
 TTTTTTTTTTTTTTTTTTTTTTTTTTTTTT SHLC        TELAPSE       47.88 TCPU       47.21
 TTTTTTTTTTTTTTTTTTTTTTTTTTTTTT MONMAD      TELAPSE       48.48 TCPU       47.81
 TTTTTTTTTTTTTTTTTTTTTTTTTTTTTT INT_CALC    TELAPSE       48.48 TCPU       47.81

 *******************************************************************************
 HEMATITE 1 -1 -1 1                                                              
 CRYSTAL - SCF - TYPE OF CALCULATION :  UNRESTRICTED OPEN SHELL
 *******************************************************************************

 CAPPA: IS1=  6 IS2=  6 IS3=  6K POINTS MONKHORST NET   32 SYMMOPS K SPACE 12 SYMMOPS G SPACE  6


 CAPPA1: ISJ1=  6 ISJ2=  6 ISJ3=  6K POINTS GILAT NET   32 SYMMOPS K SPACE 12 SYMMOPS G SPACE  6

 TTTTTTTTTTTTTTTTTTTTTTTTTTTTTT SDIK        TELAPSE       48.90 TCPU       48.14

 AAAAAAAAAAAAAAAAAAAAAAAAAAAAAAAAAAAAAAAAAAAAAAAAAAAAAAAAAAAAAAAAAAAAAAAAAAAAAAA
         ATOMIC WAVEFUNCTION(S)


 NUCLEAR CHARGE 26.0  SYMMETRY SPECIES            S    P    D
 N. ELECTRONS   23.0  NUMBER OF PRIMITIVE GTOS   20   12    5
                      NUMBER OF CONTRACTED GTOS   5    4    2
                      NUMBER OF CLOSED SHELLS     3    2    0
                      OPEN SHELL OCCUPATION       0    0    5

  ZNUC SCFIT  TOTAL HF ENERGY   KINETIC ENERGY   VIRIAL THEOREM ACCURACY
  26.0  15   -1.260550906E+03  1.260303294E+03 -2.000196471E+00  2.8E-06

 NUCLEAR CHARGE  8.0  SYMMETRY SPECIES            S    P
 N. ELECTRONS   10.0  NUMBER OF PRIMITIVE GTOS   14    6
                      NUMBER OF CONTRACTED GTOS   4    3
                      NUMBER OF CLOSED SHELLS     2    1
                      OPEN SHELL OCCUPATION       0    0

  ZNUC SCFIT  TOTAL HF ENERGY   KINETIC ENERGY   VIRIAL THEOREM ACCURACY
   8.0  61   -7.433102083E+01  7.469307318E+01 -1.995152799E+00  4.6E-06

 AAAAAAAAAAAAAAAAAAAAAAAAAAAAAAAAAAAAAAAAAAAAAAAAAAAAAAAAAAAAAAAAAAAAAAAAAAAAAAA

 CHARGE NORMALIZATION FACTOR   1.00000000
 TOTAL ATOMIC CHARGES:
  23.0000000  23.0000000  23.0000000  23.0000000  10.0000000  10.0000000
  10.0000000  10.0000000  10.0000000  10.0000000
 SUMMED SPIN DENSITY           0.00000000
 TOTAL ATOMIC SPINS  :
   5.0000000  -5.0000000  -5.0000000   5.0000000   0.0000000   0.0000000
   0.0000000   0.0000000   0.0000000   0.0000000
 TTTTTTTTTTTTTTTTTTTTTTTTTTTTTT QGAM        TELAPSE       49.77 TCPU       48.19
 TTTTTTTTTTTTTTTTTTTTTTTTTTTTTT BIEL        TELAPSE       54.55 TCPU       49.88
 TTTTTTTTTTTTTTTTTTTTTTTTTTTTTT TOTENY      TELAPSE       62.38 TCPU       49.90
 CYC   0 ETOT(AU) -5.504861491320E+03 DETOT -5.50E+03 tst  0.00E+00 PX  1.00E+00
 TTTTTTTTTTTTTTTTTTTTTTTTTTTTTT FDIK        TELAPSE       74.34 TCPU       61.73
 INSULATING STATE - TOP OF VALENCE BANDS (A.U.) -1.0000000E+00
 TTTTTTTTTTTTTTTTTTTTTTTTTTTTTT PDIG        TELAPSE       75.44 TCPU       62.82
 CHARGE NORMALIZATION FACTOR   1.00000000
 TOTAL ATOMIC CHARGES:
  23.2423915  23.2423915  23.2423915  23.2423915   9.8384057   9.8384057
   9.8384057   9.8384057   9.8384057   9.8384057
 SUMMED SPIN DENSITY           0.00000000
 TOTAL ATOMIC SPINS  :
   4.8937677  -4.8937677  -4.8937677   4.8937677   0.0000000   0.0000000
   0.0000000   0.0000000   0.0000000   0.0000000
 TTTTTTTTTTTTTTTTTTTTTTTTTTTTTT QGAM        TELAPSE       75.65 TCPU       62.84
 TTTTTTTTTTTTTTTTTTTTTTTTTTTTTT BIEL        TELAPSE       79.26 TCPU       65.98
 TTTTTTTTTTTTTTTTTTTTTTTTTTTTTT TOTENY      TELAPSE       79.28 TCPU       66.00
 CYC   1 ETOT(AU) -5.499379504052E+03 DETOT  5.48E+00 tst  0.00E+00 PX  1.00E+00
 TTTTTTTTTTTTTTTTTTTTTTTTTTTTTT FDIK        TELAPSE       83.81 TCPU       70.51
 INSULATING STATE - TOP OF VALENCE BANDS (A.U.) -1.0000000E+00
 TTTTTTTTTTTTTTTTTTTTTTTTTTTTTT PDIG        TELAPSE       84.91 TCPU       71.60
 CHARGE NORMALIZATION FACTOR   1.00000000
 TOTAL ATOMIC CHARGES:
  23.2830793  23.2830757  23.2830757  23.2830793   9.8112817   9.8112817
   9.8112817   9.8112817   9.8112817   9.8112817
 SUMMED SPIN DENSITY           0.00000000
 TOTAL ATOMIC SPINS  :
   4.8671974  -4.8672675  -4.8672675   4.8671974   0.0000234   0.0000234
   0.0000234   0.0000234   0.0000234   0.0000234
 TTTTTTTTTTTTTTTTTTTTTTTTTTTTTT QGAM        TELAPSE       84.94 TCPU       71.64
 TTTTTTTTTTTTTTTTTTTTTTTTTTTTTT BIEL        TELAPSE       88.55 TCPU       75.24
 TTTTTTTTTTTTTTTTTTTTTTTTTTTTTT TOTENY      TELAPSE       88.57 TCPU       75.25
 CYC   2 ETOT(AU) -5.499463693142E+03 DETOT -8.42E-02 tst  9.31E-04 PX  2.47E-02
 TTTTTTTTTTTTTTTTTTTTTTTTTTTTTT FDIK        TELAPSE       92.99 TCPU       79.66
 INSULATING STATE - TOP OF VALENCE BANDS (A.U.) -1.0000000E+00
 TTTTTTTTTTTTTTTTTTTTTTTTTTTTTT PDIG        TELAPSE       94.09 TCPU       80.75
 CHARGE NORMALIZATION FACTOR   1.00000000
 TOTAL ATOMIC CHARGES:
  23.3163404  23.3163393  23.3163393  23.3163404   9.7891068   9.7891068
   9.7891068   9.7891068   9.7891068   9.7891068
 SUMMED SPIN DENSITY           0.00000000
 TOTAL ATOMIC SPINS  :
   4.8414948  -4.8414831  -4.8414831   4.8414948  -0.0000039  -0.0000039
  -0.0000039  -0.0000039  -0.0000039  -0.0000039
 TTTTTTTTTTTTTTTTTTTTTTTTTTTTTT QGAM        TELAPSE       94.13 TCPU       80.79
 TTTTTTTTTTTTTTTTTTTTTTTTTTTTTT BIEL        TELAPSE       97.67 TCPU       84.33
 TTTTTTTTTTTTTTTTTTTTTTTTTTTTTT TOTENY      TELAPSE       97.69 TCPU       84.35
 CYC   3 ETOT(AU) -5.499490119402E+03 DETOT -2.64E-02 tst  6.09E-04 PX  1.35E-02
 TTTTTTTTTTTTTTTTTTTTTTTTTTTTTT FDIK        TELAPSE      102.16 TCPU       88.81
 INSULATING STATE - TOP OF VALENCE BANDS (A.U.) -1.0000000E+00
 TTTTTTTTTTTTTTTTTTTTTTTTTTTTTT PDIG        TELAPSE      103.26 TCPU       89.87
 CHARGE NORMALIZATION FACTOR   1.00000000
 TOTAL ATOMIC CHARGES:
  23.3380987  23.3381107  23.3381107  23.3380987   9.7745969   9.7745969
   9.7745969   9.7745969   9.7745969   9.7745969
 SUMMED SPIN DENSITY           0.00000000
 TOTAL ATOMIC SPINS  :
   4.8217847  -4.8217869  -4.8217869   4.8217847   0.0000007   0.0000007
   0.0000007   0.0000007   0.0000007   0.0000007
 TTTTTTTTTTTTTTTTTTTTTTTTTTTTTT QGAM        TELAPSE      103.30 TCPU       89.91
 TTTTTTTTTTTTTTTTTTTTTTTTTTTTTT BIEL        TELAPSE      106.90 TCPU       93.50
 TTTTTTTTTTTTTTTTTTTTTTTTTTTTTT TOTENY      TELAPSE      106.92 TCPU       93.52
 CYC   4 ETOT(AU) -5.499498566287E+03 DETOT -8.45E-03 tst  2.55E-04 PX  6.84E-03
 TTTTTTTTTTTTTTTTTTTTTTTTTTTTTT FDIK        TELAPSE      111.47 TCPU       98.03
 INSULATING STATE - TOP OF VALENCE BANDS (A.U.) -1.0000000E+00
 TTTTTTTTTTTTTTTTTTTTTTTTTTTTTT PDIG        TELAPSE      112.57 TCPU       99.13
 CHARGE NORMALIZATION FACTOR   1.00000000
 TOTAL ATOMIC CHARGES:
  23.3522788  23.3522802  23.3522802  23.3522788   9.7651470   9.7651470
   9.7651470   9.7651470   9.7651470   9.7651470
 SUMMED SPIN DENSITY           0.00000000
 TOTAL ATOMIC SPINS  :
   4.8073560  -4.8073581  -4.8073581   4.8073560   0.0000007   0.0000007
   0.0000007   0.0000007   0.0000007   0.0000007
 TTTTTTTTTTTTTTTTTTTTTTTTTTTTTT QGAM        TELAPSE      112.61 TCPU       99.16
 TTTTTTTTTTTTTTTTTTTTTTTTTTTTTT BIEL        TELAPSE      116.17 TCPU      102.69
 TTTTTTTTTTTTTTTTTTTTTTTTTTTTTT TOTENY      TELAPSE      116.18 TCPU      102.71
 CYC   5 ETOT(AU) -5.499502406848E+03 DETOT -3.84E-03 tst  1.06E-04 PX  2.63E-03
 TTTTTTTTTTTTTTTTTTTTTTTTTTTTTT FDIK        TELAPSE      120.71 TCPU      107.19
 INSULATING STATE - TOP OF VALENCE BANDS (A.U.) -1.0000000E+00
 TTTTTTTTTTTTTTTTTTTTTTTTTTTTTT PDIG        TELAPSE      121.81 TCPU      108.28
 CHARGE NORMALIZATION FACTOR   1.00000000
 TOTAL ATOMIC CHARGES:
  23.3620235  23.3620252  23.3620252  23.3620235   9.7586504   9.7586504
   9.7586504   9.7586504   9.7586504   9.7586504
 SUMMED SPIN DENSITY           0.00000000
 TOTAL ATOMIC SPINS  :
   4.7965881  -4.7965864  -4.7965864   4.7965881  -0.0000006  -0.0000006
  -0.0000006  -0.0000006  -0.0000006  -0.0000006
 TTTTTTTTTTTTTTTTTTTTTTTTTTTTTT QGAM        TELAPSE      121.85 TCPU      108.31
 TTTTTTTTTTTTTTTTTTTTTTTTTTTTTT BIEL        TELAPSE      125.41 TCPU      111.87
 TTTTTTTTTTTTTTTTTTTTTTTTTTTTTT TOTENY      TELAPSE      125.42 TCPU      111.89
 CYC   6 ETOT(AU) -5.499504496533E+03 DETOT -2.09E-03 tst  5.13E-05 PX  2.25E-03
 TTTTTTTTTTTTTTTTTTTTTTTTTTTTTT FDIK        TELAPSE      129.95 TCPU      116.40
 INSULATING STATE - TOP OF VALENCE BANDS (A.U.) -1.0000000E+00
 TTTTTTTTTTTTTTTTTTTTTTTTTTTTTT PDIG        TELAPSE      131.06 TCPU      117.48
 CHARGE NORMALIZATION FACTOR   1.00000000
 TOTAL ATOMIC CHARGES:
  23.3691093  23.3691101  23.3691101  23.3691093   9.7539269   9.7539269
   9.7539269   9.7539269   9.7539269   9.7539269
 SUMMED SPIN DENSITY           0.00000000
 TOTAL ATOMIC SPINS  :
   4.7883199  -4.7883199  -4.7883199   4.7883199   0.0000000   0.0000000
   0.0000000   0.0000000   0.0000000   0.0000000
 TTTTTTTTTTTTTTTTTTTTTTTTTTTTTT QGAM        TELAPSE      131.10 TCPU      117.51
 TTTTTTTTTTTTTTTTTTTTTTTTTTTTTT BIEL        TELAPSE      134.65 TCPU      121.06
 TTTTTTTTTTTTTTTTTTTTTTTTTTTTTT TOTENY      TELAPSE      134.66 TCPU      121.08
 CYC   7 ETOT(AU) -5.499505697924E+03 DETOT -1.20E-03 tst  2.83E-05 PX  1.87E-03
 TTTTTTTTTTTTTTTTTTTTTTTTTTTTTT FDIK        TELAPSE      139.12 TCPU      125.52
 INSULATING STATE - TOP OF VALENCE BANDS (A.U.) -1.0000000E+00
 TTTTTTTTTTTTTTTTTTTTTTTTTTTTTT PDIG        TELAPSE      140.27 TCPU      126.62
 CHARGE NORMALIZATION FACTOR   1.00000000
 TOTAL ATOMIC CHARGES:
  23.3744334  23.3744345  23.3744345  23.3744334   9.7503774   9.7503774
   9.7503774   9.7503774   9.7503774   9.7503774
 SUMMED SPIN DENSITY           0.00000000
 TOTAL ATOMIC SPINS  :
   4.7818667  -4.7818664  -4.7818664   4.7818667  -0.0000001  -0.0000001
  -0.0000001  -0.0000001  -0.0000001  -0.0000001
 TTTTTTTTTTTTTTTTTTTTTTTTTTTTTT QGAM        TELAPSE      140.30 TCPU      126.66
 TTTTTTTTTTTTTTTTTTTTTTTTTTTTTT BIEL        TELAPSE      143.87 TCPU      130.21
 TTTTTTTTTTTTTTTTTTTTTTTTTTTTTT TOTENY      TELAPSE      143.89 TCPU      130.23
 CYC   8 ETOT(AU) -5.499506413830E+03 DETOT -7.16E-04 tst  1.68E-05 PX  1.42E-03
 TTTTTTTTTTTTTTTTTTTTTTTTTTTTTT FDIK        TELAPSE      148.27 TCPU      134.60
 INSULATING STATE - TOP OF VALENCE BANDS (A.U.) -1.0000000E+00
 TTTTTTTTTTTTTTTTTTTTTTTTTTTTTT PDIG        TELAPSE      149.38 TCPU      135.70
 CHARGE NORMALIZATION FACTOR   1.00000000
 TOTAL ATOMIC CHARGES:
  23.3784928  23.3784929  23.3784929  23.3784928   9.7476714   9.7476714
   9.7476714   9.7476714   9.7476714   9.7476714
 SUMMED SPIN DENSITY           0.00000000
 TOTAL ATOMIC SPINS  :
   4.7767946  -4.7767943  -4.7767943   4.7767946  -0.0000001  -0.0000001
  -0.0000001  -0.0000001  -0.0000001  -0.0000001
 TTTTTTTTTTTTTTTTTTTTTTTTTTTTTT QGAM        TELAPSE      149.41 TCPU      135.74
 TTTTTTTTTTTTTTTTTTTTTTTTTTTTTT BIEL        TELAPSE      153.01 TCPU      139.33
 TTTTTTTTTTTTTTTTTTTTTTTTTTTTTT TOTENY      TELAPSE      153.03 TCPU      139.35
 CYC   9 ETOT(AU) -5.499506853840E+03 DETOT -4.40E-04 tst  1.04E-05 PX  1.05E-03
 TTTTTTTTTTTTTTTTTTTTTTTTTTTTTT FDIK        TELAPSE      157.38 TCPU      143.70
 INSULATING STATE - TOP OF VALENCE BANDS (A.U.) -1.0000000E+00
 TTTTTTTTTTTTTTTTTTTTTTTTTTTTTT PDIG        TELAPSE      158.49 TCPU      144.80
 CHARGE NORMALIZATION FACTOR   1.00000000
 TOTAL ATOMIC CHARGES:
  23.3816088  23.3816093  23.3816093  23.3816088   9.7455940   9.7455940
   9.7455940   9.7455940   9.7455940   9.7455940
 SUMMED SPIN DENSITY           0.00000000
 TOTAL ATOMIC SPINS  :
   4.7727969  -4.7727966  -4.7727966   4.7727969  -0.0000001  -0.0000001
  -0.0000001  -0.0000001  -0.0000001  -0.0000001
 TTTTTTTTTTTTTTTTTTTTTTTTTTTTTT QGAM        TELAPSE      158.52 TCPU      144.83
 TTTTTTTTTTTTTTTTTTTTTTTTTTTTTT BIEL        TELAPSE      162.09 TCPU      148.39
 TTTTTTTTTTTTTTTTTTTTTTTTTTTTTT TOTENY      TELAPSE      162.10 TCPU      148.41
 CYC  10 ETOT(AU) -5.499507131590E+03 DETOT -2.78E-04 tst  6.47E-06 PX  7.85E-04
 TTTTTTTTTTTTTTTTTTTTTTTTTTTTTT FDIK        TELAPSE      166.39 TCPU      152.69
 INSULATING STATE - TOP OF VALENCE BANDS (A.U.) -1.0000000E+00
 TTTTTTTTTTTTTTTTTTTTTTTTTTTTTT PDIG        TELAPSE      167.50 TCPU      153.79
 CHARGE NORMALIZATION FACTOR   1.00000000
 TOTAL ATOMIC CHARGES:
  23.3840109  23.3840113  23.3840113  23.3840109   9.7439926   9.7439926
   9.7439926   9.7439926   9.7439926   9.7439926
 SUMMED SPIN DENSITY           0.00000000
 TOTAL ATOMIC SPINS  :
   4.7696416  -4.7696414  -4.7696414   4.7696416  -0.0000001  -0.0000001
  -0.0000001  -0.0000001  -0.0000001  -0.0000001
 TTTTTTTTTTTTTTTTTTTTTTTTTTTTTT QGAM        TELAPSE      167.53 TCPU      153.82
 TTTTTTTTTTTTTTTTTTTTTTTTTTTTTT BIEL        TELAPSE      171.17 TCPU      157.39
 TTTTTTTTTTTTTTTTTTTTTTTTTTTTTT TOTENY      TELAPSE      171.19 TCPU      157.40
 CYC  11 ETOT(AU) -5.499507310813E+03 DETOT -1.79E-04 tst  4.07E-06 PX  5.92E-04
 TTTTTTTTTTTTTTTTTTTTTTTTTTTTTT FDIK        TELAPSE      175.47 TCPU      161.68
 INSULATING STATE - TOP OF VALENCE BANDS (A.U.) -1.0000000E+00
 TTTTTTTTTTTTTTTTTTTTTTTTTTTTTT PDIG        TELAPSE      176.57 TCPU      162.76
 CHARGE NORMALIZATION FACTOR   1.00000000
 TOTAL ATOMIC CHARGES:
  23.3858688  23.3858692  23.3858692  23.3858688   9.7427540   9.7427540
   9.7427540   9.7427540   9.7427540   9.7427540
 SUMMED SPIN DENSITY           0.00000000
 TOTAL ATOMIC SPINS  :
   4.7671474  -4.7671471  -4.7671471   4.7671474  -0.0000001  -0.0000001
  -0.0000001  -0.0000001  -0.0000001  -0.0000001
 TTTTTTTTTTTTTTTTTTTTTTTTTTTTTT QGAM        TELAPSE      176.61 TCPU      162.79
 TTTTTTTTTTTTTTTTTTTTTTTTTTTTTT BIEL        TELAPSE      180.18 TCPU      166.37
 TTTTTTTTTTTTTTTTTTTTTTTTTTTTTT TOTENY      TELAPSE      180.20 TCPU      166.39
 CYC  12 ETOT(AU) -5.499507428437E+03 DETOT -1.18E-04 tst  2.57E-06 PX  4.72E-04
 TTTTTTTTTTTTTTTTTTTTTTTTTTTTTT FDIK        TELAPSE      184.49 TCPU      170.63
 INSULATING STATE - TOP OF VALENCE BANDS (A.U.) -1.0000000E+00
 TTTTTTTTTTTTTTTTTTTTTTTTTTTTTT PDIG        TELAPSE      185.59 TCPU      171.72
 CHARGE NORMALIZATION FACTOR   1.00000000
 TOTAL ATOMIC CHARGES:
  23.3873112  23.3873115  23.3873115  23.3873112   9.7417924   9.7417924
   9.7417924   9.7417924   9.7417924   9.7417924
 SUMMED SPIN DENSITY           0.00000000
 TOTAL ATOMIC SPINS  :
   4.7651732  -4.7651730  -4.7651730   4.7651732  -0.0000001  -0.0000001
  -0.0000001  -0.0000001  -0.0000001  -0.0000001
 TTTTTTTTTTTTTTTTTTTTTTTTTTTTTT QGAM        TELAPSE      185.62 TCPU      171.75
 TTTTTTTTTTTTTTTTTTTTTTTTTTTTTT BIEL        TELAPSE      189.26 TCPU      175.36
 TTTTTTTTTTTTTTTTTTTTTTTTTTTTTT TOTENY      TELAPSE      189.28 TCPU      175.37
 CYC  13 ETOT(AU) -5.499507506927E+03 DETOT -7.85E-05 tst  1.63E-06 PX  4.11E-04
 TTTTTTTTTTTTTTTTTTTTTTTTTTTTTT FDIK        TELAPSE      193.56 TCPU      179.63
 INSULATING STATE - TOP OF VALENCE BANDS (A.U.) -1.0000000E+00
 TTTTTTTTTTTTTTTTTTTTTTTTTTTTTT PDIG        TELAPSE      194.66 TCPU      180.72
 CHARGE NORMALIZATION FACTOR   1.00000000
 TOTAL ATOMIC CHARGES:
  23.3884367  23.3884370  23.3884370  23.3884367   9.7410421   9.7410421
   9.7410421   9.7410421   9.7410421   9.7410421
 SUMMED SPIN DENSITY           0.00000000
 TOTAL ATOMIC SPINS  :
   4.7636067  -4.7636066  -4.7636066   4.7636067   0.0000000   0.0000000
   0.0000000   0.0000000   0.0000000   0.0000000
 TTTTTTTTTTTTTTTTTTTTTTTTTTTTTT QGAM        TELAPSE      194.69 TCPU      180.76
 TTTTTTTTTTTTTTTTTTTTTTTTTTTTTT BIEL        TELAPSE      198.27 TCPU      184.33
 TTTTTTTTTTTTTTTTTTTTTTTTTTTTTT TOTENY      TELAPSE      198.29 TCPU      184.34
 CYC  14 ETOT(AU) -5.499507560087E+03 DETOT -5.32E-05 tst  1.04E-06 PX  3.56E-04
 TTTTTTTTTTTTTTTTTTTTTTTTTTTTTT FDIK        TELAPSE      202.60 TCPU      188.64
 INSULATING STATE - TOP OF VALENCE BANDS (A.U.) -1.0000000E+00
 TTTTTTTTTTTTTTTTTTTTTTTTTTTTTT PDIG        TELAPSE      203.71 TCPU      189.72
 CHARGE NORMALIZATION FACTOR   1.00000000
 TOTAL ATOMIC CHARGES:
  23.3893172  23.3893174  23.3893174  23.3893172   9.7404551   9.7404551
   9.7404551   9.7404551   9.7404551   9.7404551
 SUMMED SPIN DENSITY           0.00000000
 TOTAL ATOMIC SPINS  :
   4.7623616  -4.7623615  -4.7623615   4.7623616   0.0000000   0.0000000
   0.0000000   0.0000000   0.0000000   0.0000000
 TTTTTTTTTTTTTTTTTTTTTTTTTTTTTT QGAM        TELAPSE      203.74 TCPU      189.76
 TTTTTTTTTTTTTTTTTTTTTTTTTTTTTT BIEL        TELAPSE      207.35 TCPU      193.36
 TTTTTTTTTTTTTTTTTTTTTTTTTTTTTT TOTENY      TELAPSE      207.37 TCPU      193.38
 CYC  15 ETOT(AU) -5.499507596565E+03 DETOT -3.65E-05 tst  6.63E-07 PX  3.08E-04
 TTTTTTTTTTTTTTTTTTTTTTTTTTTTTT FDIK        TELAPSE      211.63 TCPU      197.63
 INSULATING STATE - TOP OF VALENCE BANDS (A.U.) -1.0000000E+00
 TTTTTTTTTTTTTTTTTTTTTTTTTTTTTT PDIG        TELAPSE      212.74 TCPU      198.71
 CHARGE NORMALIZATION FACTOR   1.00000000
 TOTAL ATOMIC CHARGES:
  23.3900093  23.3900094  23.3900094  23.3900093   9.7399938   9.7399938
   9.7399938   9.7399938   9.7399938   9.7399938
 SUMMED SPIN DENSITY           0.00000000
 TOTAL ATOMIC SPINS  :
   4.7613695  -4.7613694  -4.7613694   4.7613695   0.0000000   0.0000000
   0.0000000   0.0000000   0.0000000   0.0000000
 TTTTTTTTTTTTTTTTTTTTTTTTTTTTTT QGAM        TELAPSE      212.77 TCPU      198.74
 TTTTTTTTTTTTTTTTTTTTTTTTTTTTTT BIEL        TELAPSE      216.35 TCPU      202.30
 TTTTTTTTTTTTTTTTTTTTTTTTTTTTTT TOTENY      TELAPSE      216.36 TCPU      202.32
 CYC  16 ETOT(AU) -5.499507621915E+03 DETOT -2.53E-05 tst  4.26E-07 PX  2.65E-04
 TTTTTTTTTTTTTTTTTTTTTTTTTTTTTT FDIK        TELAPSE      220.62 TCPU      206.57
 INSULATING STATE - TOP OF VALENCE BANDS (A.U.) -1.0000000E+00
 TTTTTTTTTTTTTTTTTTTTTTTTTTTTTT PDIG        TELAPSE      221.72 TCPU      207.66
 CHARGE NORMALIZATION FACTOR   1.00000000
 TOTAL ATOMIC CHARGES:
  23.3905546  23.3905547  23.3905547  23.3905546   9.7396302   9.7396302
   9.7396302   9.7396302   9.7396302   9.7396302
 SUMMED SPIN DENSITY           0.00000000
 TOTAL ATOMIC SPINS  :
   4.7605777  -4.7605777  -4.7605777   4.7605777   0.0000000   0.0000000
   0.0000000   0.0000000   0.0000000   0.0000000
 TTTTTTTTTTTTTTTTTTTTTTTTTTTTTT QGAM        TELAPSE      221.76 TCPU      207.69
 TTTTTTTTTTTTTTTTTTTTTTTTTTTTTT BIEL        TELAPSE      225.34 TCPU      211.27
 TTTTTTTTTTTTTTTTTTTTTTTTTTTTTT TOTENY      TELAPSE      225.35 TCPU      211.29
 CYC  17 ETOT(AU) -5.499507639728E+03 DETOT -1.78E-05 tst  2.75E-07 PX  2.28E-04
 TTTTTTTTTTTTTTTTTTTTTTTTTTTTTT FDIK        TELAPSE      229.62 TCPU      215.55
 INSULATING STATE - TOP OF VALENCE BANDS (A.U.) -1.0000000E+00
 TTTTTTTTTTTTTTTTTTTTTTTTTTTTTT PDIG        TELAPSE      230.78 TCPU      216.69
 CHARGE NORMALIZATION FACTOR   1.00000000
 TOTAL ATOMIC CHARGES:
  23.3909862  23.3909863  23.3909863  23.3909862   9.7393425   9.7393425
   9.7393425   9.7393425   9.7393425   9.7393425
 SUMMED SPIN DENSITY           0.00000000
 TOTAL ATOMIC SPINS  :
   4.7599444  -4.7599443  -4.7599443   4.7599444   0.0000000   0.0000000
   0.0000000   0.0000000   0.0000000   0.0000000
 TTTTTTTTTTTTTTTTTTTTTTTTTTTTTT QGAM        TELAPSE      230.81 TCPU      216.73
 TTTTTTTTTTTTTTTTTTTTTTTTTTTTTT BIEL        TELAPSE      234.44 TCPU      220.35
 TTTTTTTTTTTTTTTTTTTTTTTTTTTTTT TOTENY      TELAPSE      234.46 TCPU      220.37
 CYC  18 ETOT(AU) -5.499507652367E+03 DETOT -1.26E-05 tst  1.78E-07 PX  1.96E-04
 TTTTTTTTTTTTTTTTTTTTTTTTTTTTTT FDIK        TELAPSE      238.74 TCPU      224.65
 INSULATING STATE - TOP OF VALENCE BANDS (A.U.) -1.0000000E+00
 TTTTTTTTTTTTTTTTTTTTTTTTTTTTTT PDIG        TELAPSE      239.84 TCPU      225.75
 CHARGE NORMALIZATION FACTOR   1.00000000
 TOTAL ATOMIC CHARGES:
  23.3913288  23.3913288  23.3913288  23.3913288   9.7391141   9.7391141
   9.7391141   9.7391141   9.7391141   9.7391141
 SUMMED SPIN DENSITY           0.00000000
 TOTAL ATOMIC SPINS  :
   4.7594368  -4.7594367  -4.7594367   4.7594368   0.0000000   0.0000000
   0.0000000   0.0000000   0.0000000   0.0000000
 TTTTTTTTTTTTTTTTTTTTTTTTTTTTTT QGAM        TELAPSE      239.88 TCPU      225.79
 TTTTTTTTTTTTTTTTTTTTTTTTTTTTTT BIEL        TELAPSE      243.43 TCPU      229.34
 TTTTTTTTTTTTTTTTTTTTTTTTTTTTTT TOTENY      TELAPSE      243.45 TCPU      229.35
 CYC  19 ETOT(AU) -5.499507661443E+03 DETOT -9.08E-06 tst  1.16E-07 PX  1.68E-04
 TTTTTTTTTTTTTTTTTTTTTTTTTTTTTT FDIK        TELAPSE      247.74 TCPU      233.63
 INSULATING STATE - TOP OF VALENCE BANDS (A.U.) -1.0000000E+00
 TTTTTTTTTTTTTTTTTTTTTTTTTTTTTT PDIG        TELAPSE      248.83 TCPU      234.70
 CHARGE NORMALIZATION FACTOR   1.00000000
 TOTAL ATOMIC CHARGES:
  23.3916016  23.3916016  23.3916016  23.3916016   9.7389323   9.7389323
   9.7389323   9.7389323   9.7389323   9.7389323
 SUMMED SPIN DENSITY           0.00000000
 TOTAL ATOMIC SPINS  :
   4.7590291  -4.7590290  -4.7590290   4.7590291   0.0000000   0.0000000
   0.0000000   0.0000000   0.0000000   0.0000000
 TTTTTTTTTTTTTTTTTTTTTTTTTTTTTT QGAM        TELAPSE      248.87 TCPU      234.74
 TTTTTTTTTTTTTTTTTTTTTTTTTTTTTT BIEL        TELAPSE      252.44 TCPU      238.31
 TTTTTTTTTTTTTTTTTTTTTTTTTTTTTT TOTENY      TELAPSE      252.46 TCPU      238.33
 CYC  20 ETOT(AU) -5.499507667996E+03 DETOT -6.55E-06 tst  7.57E-08 PX  1.43E-04
 TTTTTTTTTTTTTTTTTTTTTTTTTTTTTT FDIK        TELAPSE      256.75 TCPU      242.62
 INSULATING STATE - TOP OF VALENCE BANDS (A.U.) -1.0000000E+00
 TTTTTTTTTTTTTTTTTTTTTTTTTTTTTT PDIG        TELAPSE      257.86 TCPU      243.70
 CHARGE NORMALIZATION FACTOR   1.00000000
 TOTAL ATOMIC CHARGES:
  23.3918194  23.3918195  23.3918195  23.3918194   9.7387870   9.7387870
   9.7387870   9.7387870   9.7387870   9.7387870
 SUMMED SPIN DENSITY           0.00000000
 TOTAL ATOMIC SPINS  :
   4.7587009  -4.7587008  -4.7587008   4.7587009   0.0000000   0.0000000
   0.0000000   0.0000000   0.0000000   0.0000000
 TTTTTTTTTTTTTTTTTTTTTTTTTTTTTT QGAM        TELAPSE      258.37 TCPU      243.72
 TTTTTTTTTTTTTTTTTTTTTTTTTTTTTT BIEL        TELAPSE      261.98 TCPU      247.28
 TTTTTTTTTTTTTTTTTTTTTTTTTTTTTT TOTENY      TELAPSE      262.00 TCPU      247.30
 CYC  21 ETOT(AU) -5.499507672787E+03 DETOT -4.79E-06 tst  4.96E-08 PX  1.22E-04
 TTTTTTTTTTTTTTTTTTTTTTTTTTTTTT FDIK        TELAPSE      266.27 TCPU      251.56
 INSULATING STATE - TOP OF VALENCE BANDS (A.U.) -1.0000000E+00
 TTTTTTTTTTTTTTTTTTTTTTTTTTTTTT PDIG        TELAPSE      267.37 TCPU      252.66
 CHARGE NORMALIZATION FACTOR   1.00000000
 TOTAL ATOMIC CHARGES:
  23.3919938  23.3919938  23.3919938  23.3919938   9.7386708   9.7386708
   9.7386708   9.7386708   9.7386708   9.7386708
 SUMMED SPIN DENSITY           0.00000000
 TOTAL ATOMIC SPINS  :
   4.7584362  -4.7584362  -4.7584362   4.7584362   0.0000000   0.0000000
   0.0000000   0.0000000   0.0000000   0.0000000
 TTTTTTTTTTTTTTTTTTTTTTTTTTTTTT QGAM        TELAPSE      267.40 TCPU      252.69
 TTTTTTTTTTTTTTTTTTTTTTTTTTTTTT BIEL        TELAPSE      270.99 TCPU      256.28
 TTTTTTTTTTTTTTTTTTTTTTTTTTTTTT TOTENY      TELAPSE      271.00 TCPU      256.29
 CYC  22 ETOT(AU) -5.499507676302E+03 DETOT -3.52E-06 tst  3.26E-08 PX  1.04E-04
 TTTTTTTTTTTTTTTTTTTTTTTTTTTTTT FDIK        TELAPSE      275.30 TCPU      260.57
 INSULATING STATE - TOP OF VALENCE BANDS (A.U.) -1.0000000E+00
 TTTTTTTTTTTTTTTTTTTTTTTTTTTTTT PDIG        TELAPSE      276.41 TCPU      261.66
 CHARGE NORMALIZATION FACTOR   1.00000000
 TOTAL ATOMIC CHARGES:
  23.3921339  23.3921339  23.3921339  23.3921339   9.7385774   9.7385774
   9.7385774   9.7385774   9.7385774   9.7385774
 SUMMED SPIN DENSITY           0.00000000
 TOTAL ATOMIC SPINS  :
   4.7582222  -4.7582222  -4.7582222   4.7582222   0.0000000   0.0000000
   0.0000000   0.0000000   0.0000000   0.0000000
 TTTTTTTTTTTTTTTTTTTTTTTTTTTTTT QGAM        TELAPSE      276.44 TCPU      261.68
 TTTTTTTTTTTTTTTTTTTTTTTTTTTTTT BIEL        TELAPSE      280.06 TCPU      265.31
 TTTTTTTTTTTTTTTTTTTTTTTTTTTTTT TOTENY      TELAPSE      280.08 TCPU      265.33
 CYC  23 ETOT(AU) -5.499507678920E+03 DETOT -2.62E-06 tst  2.15E-08 PX  8.88E-05
 TTTTTTTTTTTTTTTTTTTTTTTTTTTTTT FDIK        TELAPSE      284.37 TCPU      269.59
 INSULATING STATE - TOP OF VALENCE BANDS (A.U.) -1.0000000E+00
 TTTTTTTTTTTTTTTTTTTTTTTTTTTTTT PDIG        TELAPSE      285.47 TCPU      270.68
 CHARGE NORMALIZATION FACTOR   1.00000000
 TOTAL ATOMIC CHARGES:
  23.3922466  23.3922466  23.3922466  23.3922466   9.7385023   9.7385023
   9.7385023   9.7385023   9.7385023   9.7385023
 SUMMED SPIN DENSITY           0.00000000
 TOTAL ATOMIC SPINS  :
   4.7580491  -4.7580491  -4.7580491   4.7580491   0.0000000   0.0000000
   0.0000000   0.0000000   0.0000000   0.0000000
 TTTTTTTTTTTTTTTTTTTTTTTTTTTTTT QGAM        TELAPSE      285.51 TCPU      270.71
 TTTTTTTTTTTTTTTTTTTTTTTTTTTTTT BIEL        TELAPSE      289.07 TCPU      274.28
 TTTTTTTTTTTTTTTTTTTTTTTTTTTTTT TOTENY      TELAPSE      289.09 TCPU      274.29
 CYC  24 ETOT(AU) -5.499507680871E+03 DETOT -1.95E-06 tst  1.42E-08 PX  7.55E-05
 TTTTTTTTTTTTTTTTTTTTTTTTTTTTTT FDIK        TELAPSE      293.43 TCPU      278.58
 INSULATING STATE - TOP OF VALENCE BANDS (A.U.) -1.0000000E+00
 TTTTTTTTTTTTTTTTTTTTTTTTTTTTTT PDIG        TELAPSE      294.53 TCPU      279.67
 CHARGE NORMALIZATION FACTOR   1.00000000
 TOTAL ATOMIC CHARGES:
  23.3923375  23.3923375  23.3923375  23.3923375   9.7384417   9.7384417
   9.7384417   9.7384417   9.7384417   9.7384417
 SUMMED SPIN DENSITY           0.00000000
 TOTAL ATOMIC SPINS  :
   4.7579085  -4.7579085  -4.7579085   4.7579085   0.0000000   0.0000000
   0.0000000   0.0000000   0.0000000   0.0000000
 TTTTTTTTTTTTTTTTTTTTTTTTTTTTTT QGAM        TELAPSE      294.57 TCPU      279.69
 TTTTTTTTTTTTTTTTTTTTTTTTTTTTTT BIEL        TELAPSE      298.13 TCPU      283.26
 TTTTTTTTTTTTTTTTTTTTTTTTTTTTTT TOTENY      TELAPSE      298.15 TCPU      283.28
 CYC  25 ETOT(AU) -5.499507682346E+03 DETOT -1.47E-06 tst  9.43E-09 PX  6.41E-05
 TTTTTTTTTTTTTTTTTTTTTTTTTTTTTT FDIK        TELAPSE      302.46 TCPU      287.57
 INSULATING STATE - TOP OF VALENCE BANDS (A.U.) -1.0000000E+00
 TTTTTTTTTTTTTTTTTTTTTTTTTTTTTT PDIG        TELAPSE      303.55 TCPU      288.64
 CHARGE NORMALIZATION FACTOR   1.00000000
 TOTAL ATOMIC CHARGES:
  23.3924110  23.3924110  23.3924110  23.3924110   9.7383927   9.7383927
   9.7383927   9.7383927   9.7383927   9.7383927
 SUMMED SPIN DENSITY           0.00000000
 TOTAL ATOMIC SPINS  :
   4.7577944  -4.7577944  -4.7577944   4.7577944   0.0000000   0.0000000
   0.0000000   0.0000000   0.0000000   0.0000000
 TTTTTTTTTTTTTTTTTTTTTTTTTTTTTT QGAM        TELAPSE      303.59 TCPU      288.68
 TTTTTTTTTTTTTTTTTTTTTTTTTTTTTT BIEL        TELAPSE      307.15 TCPU      292.23
 TTTTTTTTTTTTTTTTTTTTTTTTTTTTTT TOTENY      TELAPSE      307.17 TCPU      292.25
 CYC  26 ETOT(AU) -5.499507683462E+03 DETOT -1.12E-06 tst  6.28E-09 PX  5.44E-05
 TTTTTTTTTTTTTTTTTTTTTTTTTTTTTT FDIK        TELAPSE      311.45 TCPU      296.50
 INSULATING STATE - TOP OF VALENCE BANDS (A.U.) -1.0000000E+00
 TTTTTTTTTTTTTTTTTTTTTTTTTTTTTT PDIG        TELAPSE      312.56 TCPU      297.61
 CHARGE NORMALIZATION FACTOR   1.00000000
 TOTAL ATOMIC CHARGES:
  23.3924706  23.3924706  23.3924706  23.3924706   9.7383529   9.7383529
   9.7383529   9.7383529   9.7383529   9.7383529
 SUMMED SPIN DENSITY           0.00000000
 TOTAL ATOMIC SPINS  :
   4.7577014  -4.7577014  -4.7577014   4.7577014   0.0000000   0.0000000
   0.0000000   0.0000000   0.0000000   0.0000000
 TTTTTTTTTTTTTTTTTTTTTTTTTTTTTT QGAM        TELAPSE      312.59 TCPU      297.64
 TTTTTTTTTTTTTTTTTTTTTTTTTTTTTT BIEL        TELAPSE      316.16 TCPU      301.19
 TTTTTTTTTTTTTTTTTTTTTTTTTTTTTT TOTENY      TELAPSE      316.18 TCPU      301.21
 CYC  27 ETOT(AU) -5.499507684319E+03 DETOT -8.57E-07 tst  4.41E-09 PX  4.61E-05
 TTTTTTTTTTTTTTTTTTTTTTTTTTTTTT FDIK        TELAPSE      320.52 TCPU      305.48
 INSULATING STATE - TOP OF VALENCE BANDS (A.U.) -1.0000000E+00
 TTTTTTTTTTTTTTTTTTTTTTTTTTTTTT PDIG        TELAPSE      321.62 TCPU      306.58
 CHARGE NORMALIZATION FACTOR   1.00000000
 TOTAL ATOMIC CHARGES:
  23.3925189  23.3925189  23.3925189  23.3925189   9.7383207   9.7383207
   9.7383207   9.7383207   9.7383207   9.7383207
 SUMMED SPIN DENSITY           0.00000000
 TOTAL ATOMIC SPINS  :
   4.7576256  -4.7576256  -4.7576256   4.7576256   0.0000000   0.0000000
   0.0000000   0.0000000   0.0000000   0.0000000
 TTTTTTTTTTTTTTTTTTTTTTTTTTTTTT QGAM        TELAPSE      321.65 TCPU      306.61
 TTTTTTTTTTTTTTTTTTTTTTTTTTTTTT BIEL        TELAPSE      325.22 TCPU      310.16
 TTTTTTTTTTTTTTTTTTTTTTTTTTTTTT TOTENY      TELAPSE      325.24 TCPU      310.18
 CYC  28 ETOT(AU) -5.499507684979E+03 DETOT -6.60E-07 tst  3.16E-09 PX  3.90E-05
 TTTTTTTTTTTTTTTTTTTTTTTTTTTTTT FDIK        TELAPSE      329.54 TCPU      314.48
 INSULATING STATE - TOP OF VALENCE BANDS (A.U.) -1.0000000E+00
 TTTTTTTTTTTTTTTTTTTTTTTTTTTTTT PDIG        TELAPSE      330.66 TCPU      315.58
 CHARGE NORMALIZATION FACTOR   1.00000000
 TOTAL ATOMIC CHARGES:
  23.3925583  23.3925583  23.3925583  23.3925583   9.7382945   9.7382945
   9.7382945   9.7382945   9.7382945   9.7382945
 SUMMED SPIN DENSITY           0.00000000
 TOTAL ATOMIC SPINS  :
   4.7575636  -4.7575636  -4.7575636   4.7575636   0.0000000   0.0000000
   0.0000000   0.0000000   0.0000000   0.0000000
 TTTTTTTTTTTTTTTTTTTTTTTTTTTTTT QGAM        TELAPSE      330.69 TCPU      315.61
 TTTTTTTTTTTTTTTTTTTTTTTTTTTTTT BIEL        TELAPSE      334.26 TCPU      319.18
 TTTTTTTTTTTTTTTTTTTTTTTTTTTTTT TOTENY      TELAPSE      334.27 TCPU      319.20
 CYC  29 ETOT(AU) -5.499507685490E+03 DETOT -5.11E-07 tst  2.28E-09 PX  3.31E-05
 TTTTTTTTTTTTTTTTTTTTTTTTTTTTTT FDIK        TELAPSE      338.58 TCPU      323.50
 INSULATING STATE - TOP OF VALENCE BANDS (A.U.) -1.0000000E+00
 TTTTTTTTTTTTTTTTTTTTTTTTTTTTTT PDIG        TELAPSE      339.68 TCPU      324.58
 CHARGE NORMALIZATION FACTOR   1.00000000
 TOTAL ATOMIC CHARGES:
  23.3925903  23.3925903  23.3925903  23.3925903   9.7382731   9.7382731
   9.7382731   9.7382731   9.7382731   9.7382731
 SUMMED SPIN DENSITY           0.00000000
 TOTAL ATOMIC SPINS  :
   4.7575130  -4.7575130  -4.7575130   4.7575130   0.0000000   0.0000000
   0.0000000   0.0000000   0.0000000   0.0000000
 TTTTTTTTTTTTTTTTTTTTTTTTTTTTTT QGAM        TELAPSE      339.72 TCPU      324.62
 TTTTTTTTTTTTTTTTTTTTTTTTTTTTTT BIEL        TELAPSE      343.30 TCPU      328.20
 TTTTTTTTTTTTTTTTTTTTTTTTTTTTTT TOTENY      TELAPSE      343.32 TCPU      328.21
 CYC  30 ETOT(AU) -5.499507685888E+03 DETOT -3.98E-07 tst  1.65E-09 PX  2.81E-05
 TTTTTTTTTTTTTTTTTTTTTTTTTTTTTT FDIK        TELAPSE      347.62 TCPU      332.50
 INSULATING STATE - TOP OF VALENCE BANDS (A.U.) -1.0000000E+00
 TTTTTTTTTTTTTTTTTTTTTTTTTTTTTT PDIG        TELAPSE      348.72 TCPU      333.59
 CHARGE NORMALIZATION FACTOR   1.00000000
 TOTAL ATOMIC CHARGES:
  23.3926165  23.3926165  23.3926165  23.3926165   9.7382557   9.7382557
   9.7382557   9.7382557   9.7382557   9.7382557
 SUMMED SPIN DENSITY           0.00000000
 TOTAL ATOMIC SPINS  :
   4.7574715  -4.7574714  -4.7574714   4.7574715   0.0000000   0.0000000
   0.0000000   0.0000000   0.0000000   0.0000000
 TTTTTTTTTTTTTTTTTTTTTTTTTTTTTT QGAM        TELAPSE      348.76 TCPU      333.62
 TTTTTTTTTTTTTTTTTTTTTTTTTTTTTT BIEL        TELAPSE      352.36 TCPU      337.17
 TTTTTTTTTTTTTTTTTTTTTTTTTTTTTT TOTENY      TELAPSE      352.38 TCPU      337.18
 CYC  31 ETOT(AU) -5.499507686203E+03 DETOT -3.14E-07 tst  1.19E-09 PX  2.38E-05
 TTTTTTTTTTTTTTTTTTTTTTTTTTTTTT FDIK        TELAPSE      356.68 TCPU      341.48
 INSULATING STATE - TOP OF VALENCE BANDS (A.U.) -1.0000000E+00
 TTTTTTTTTTTTTTTTTTTTTTTTTTTTTT PDIG        TELAPSE      357.79 TCPU      342.57
 CHARGE NORMALIZATION FACTOR   1.00000000
 TOTAL ATOMIC CHARGES:
  23.3926379  23.3926379  23.3926379  23.3926379   9.7382414   9.7382414
   9.7382414   9.7382414   9.7382414   9.7382414
 SUMMED SPIN DENSITY           0.00000000
 TOTAL ATOMIC SPINS  :
   4.7574374  -4.7574374  -4.7574374   4.7574374   0.0000000   0.0000000
   0.0000000   0.0000000   0.0000000   0.0000000
 TTTTTTTTTTTTTTTTTTTTTTTTTTTTTT QGAM        TELAPSE      357.83 TCPU      342.60
 TTTTTTTTTTTTTTTTTTTTTTTTTTTTTT BIEL        TELAPSE      361.40 TCPU      346.18
 TTTTTTTTTTTTTTTTTTTTTTTTTTTTTT TOTENY      TELAPSE      361.42 TCPU      346.19
 CYC  32 ETOT(AU) -5.499507686450E+03 DETOT -2.47E-07 tst  8.62E-10 PX  2.02E-05
 TTTTTTTTTTTTTTTTTTTTTTTTTTTTTT FDIK        TELAPSE      365.73 TCPU      350.49
 INSULATING STATE - TOP OF VALENCE BANDS (A.U.) -1.0000000E+00
 TTTTTTTTTTTTTTTTTTTTTTTTTTTTTT PDIG        TELAPSE      366.83 TCPU      351.59
 CHARGE NORMALIZATION FACTOR   1.00000000
 TOTAL ATOMIC CHARGES:
  23.3926554  23.3926554  23.3926554  23.3926554   9.7382298   9.7382298
   9.7382298   9.7382298   9.7382298   9.7382298
 SUMMED SPIN DENSITY           0.00000000
 TOTAL ATOMIC SPINS  :
   4.7574094  -4.7574094  -4.7574094   4.7574094   0.0000000   0.0000000
   0.0000000   0.0000000   0.0000000   0.0000000
 TTTTTTTTTTTTTTTTTTTTTTTTTTTTTT QGAM        TELAPSE      366.86 TCPU      351.62
 TTTTTTTTTTTTTTTTTTTTTTTTTTTTTT BIEL        TELAPSE      370.49 TCPU      355.23
 TTTTTTTTTTTTTTTTTTTTTTTTTTTTTT TOTENY      TELAPSE      370.50 TCPU      355.25
 CYC  33 ETOT(AU) -5.499507686647E+03 DETOT -1.97E-07 tst  6.21E-10 PX  1.71E-05
 TTTTTTTTTTTTTTTTTTTTTTTTTTTTTT FDIK        TELAPSE      374.80 TCPU      359.55
 INSULATING STATE - TOP OF VALENCE BANDS (A.U.) -1.0000000E+00
 TTTTTTTTTTTTTTTTTTTTTTTTTTTTTT PDIG        TELAPSE      375.91 TCPU      360.64
 CHARGE NORMALIZATION FACTOR   1.00000000
 TOTAL ATOMIC CHARGES:
  23.3926697  23.3926697  23.3926697  23.3926697   9.7382202   9.7382202
   9.7382202   9.7382202   9.7382202   9.7382202
 SUMMED SPIN DENSITY           0.00000000
 TOTAL ATOMIC SPINS  :
   4.7573864  -4.7573864  -4.7573864   4.7573864   0.0000000   0.0000000
   0.0000000   0.0000000   0.0000000   0.0000000
 TTTTTTTTTTTTTTTTTTTTTTTTTTTTTT QGAM        TELAPSE      375.94 TCPU      360.67
 TTTTTTTTTTTTTTTTTTTTTTTTTTTTTT BIEL        TELAPSE      379.51 TCPU      364.24
 TTTTTTTTTTTTTTTTTTTTTTTTTTTTTT TOTENY      TELAPSE      379.52 TCPU      364.25
 CYC  34 ETOT(AU) -5.499507686804E+03 DETOT -1.57E-07 tst  4.47E-10 PX  1.44E-05
 TTTTTTTTTTTTTTTTTTTTTTTTTTTTTT FDIK        TELAPSE      383.87 TCPU      368.55
 INSULATING STATE - TOP OF VALENCE BANDS (A.U.) -1.0000000E+00
 TTTTTTTTTTTTTTTTTTTTTTTTTTTTTT PDIG        TELAPSE      384.98 TCPU      369.64
 CHARGE NORMALIZATION FACTOR   1.00000000
 TOTAL ATOMIC CHARGES:
  23.3926815  23.3926815  23.3926815  23.3926815   9.7382123   9.7382123
   9.7382123   9.7382123   9.7382123   9.7382123
 SUMMED SPIN DENSITY           0.00000000
 TOTAL ATOMIC SPINS  :
   4.7573674  -4.7573674  -4.7573674   4.7573674   0.0000000   0.0000000
   0.0000000   0.0000000   0.0000000   0.0000000
 TTTTTTTTTTTTTTTTTTTTTTTTTTTTTT QGAM        TELAPSE      385.02 TCPU      369.68
 TTTTTTTTTTTTTTTTTTTTTTTTTTTTTT BIEL        TELAPSE      388.60 TCPU      373.25
 TTTTTTTTTTTTTTTTTTTTTTTTTTTTTT TOTENY      TELAPSE      388.61 TCPU      373.27
 CYC  35 ETOT(AU) -5.499507686930E+03 DETOT -1.26E-07 tst  3.21E-10 PX  1.22E-05
 TTTTTTTTTTTTTTTTTTTTTTTTTTTTTT FDIK        TELAPSE      392.92 TCPU      377.56
 INSULATING STATE - TOP OF VALENCE BANDS (A.U.) -1.0000000E+00
 TTTTTTTTTTTTTTTTTTTTTTTTTTTTTT PDIG        TELAPSE      394.02 TCPU      378.66
 CHARGE NORMALIZATION FACTOR   1.00000000
 TOTAL ATOMIC CHARGES:
  23.3926912  23.3926912  23.3926912  23.3926912   9.7382059   9.7382059
   9.7382059   9.7382059   9.7382059   9.7382059
 SUMMED SPIN DENSITY           0.00000000
 TOTAL ATOMIC SPINS  :
   4.7573518  -4.7573518  -4.7573518   4.7573518   0.0000000   0.0000000
   0.0000000   0.0000000   0.0000000   0.0000000
 TTTTTTTTTTTTTTTTTTTTTTTTTTTTTT QGAM        TELAPSE      394.05 TCPU      378.69
 TTTTTTTTTTTTTTTTTTTTTTTTTTTTTT BIEL        TELAPSE      397.62 TCPU      382.26
 TTTTTTTTTTTTTTTTTTTTTTTTTTTTTT TOTENY      TELAPSE      397.64 TCPU      382.28
 CYC  36 ETOT(AU) -5.499507687031E+03 DETOT -1.02E-07 tst  2.30E-10 PX  1.03E-05
 TTTTTTTTTTTTTTTTTTTTTTTTTTTTTT FDIK        TELAPSE      401.95 TCPU      386.59
 INSULATING STATE - TOP OF VALENCE BANDS (A.U.) -1.0000000E+00
 TTTTTTTTTTTTTTTTTTTTTTTTTTTTTT PDIG        TELAPSE      403.06 TCPU      387.69
 CHARGE NORMALIZATION FACTOR   1.00000000
 TOTAL ATOMIC CHARGES:
  23.3926991  23.3926992  23.3926992  23.3926991   9.7382006   9.7382006
   9.7382006   9.7382006   9.7382006   9.7382006
 SUMMED SPIN DENSITY           0.00000000
 TOTAL ATOMIC SPINS  :
   4.7573389  -4.7573389  -4.7573389   4.7573389   0.0000000   0.0000000
   0.0000000   0.0000000   0.0000000   0.0000000
 TTTTTTTTTTTTTTTTTTTTTTTTTTTTTT QGAM        TELAPSE      403.09 TCPU      387.73
 TTTTTTTTTTTTTTTTTTTTTTTTTTTTTT BIEL        TELAPSE      406.63 TCPU      391.27
 TTTTTTTTTTTTTTTTTTTTTTTTTTTTTT TOTENY      TELAPSE      406.65 TCPU      391.28
 CYC  37 ETOT(AU) -5.499507687113E+03 DETOT -8.19E-08 tst  1.65E-10 PX  8.69E-06
 TTTTTTTTTTTTTTTTTTTTTTTTTTTTTT FDIK        TELAPSE      411.01 TCPU      395.59
 INSULATING STATE - TOP OF VALENCE BANDS (A.U.) -1.0000000E+00
 TTTTTTTTTTTTTTTTTTTTTTTTTTTTTT PDIG        TELAPSE      412.11 TCPU      396.67
 CHARGE NORMALIZATION FACTOR   1.00000000
 TOTAL ATOMIC CHARGES:
  23.3927057  23.3927057  23.3927057  23.3927057   9.7381962   9.7381962
   9.7381962   9.7381962   9.7381962   9.7381962
 SUMMED SPIN DENSITY           0.00000000
 TOTAL ATOMIC SPINS  :
   4.7573282  -4.7573282  -4.7573282   4.7573282   0.0000000   0.0000000
   0.0000000   0.0000000   0.0000000   0.0000000
 TTTTTTTTTTTTTTTTTTTTTTTTTTTTTT QGAM        TELAPSE      412.14 TCPU      396.70
 TTTTTTTTTTTTTTTTTTTTTTTTTTTTTT BIEL        TELAPSE      415.70 TCPU      400.25
 +++ ENERGIES IN A.U. +++
 ::: EXT EL-POLE : L =  0                         -3.4143491665381E+03
 ::: EXT EL-POLE : L =  1                          2.8157886413465E-02
 ::: EXT EL-POLE : L =  2                          1.2509548428696E-02
 ::: EXT EL-POLE : L =  3                          1.0480672065849E-02
 ::: EXT EL-POLE : L =  4                          2.2926329857115E-03
 ::: EXT EL-SPHEROPOLE                             3.7837313226791E+01
 ::: BIELET ZONE E-E                               4.6329893757434E+03
 ::: TOTAL E-E                                     1.2565309631719E+03
 ::: TOTAL E-N + N-E                              -1.1329440820569E+04
 ::: TOTAL N-N                                    -9.2511710747332E+02
 ::: KINETIC ENERGY                                5.4985192776909E+03
 ::: TOTAL   ENERGY                               -5.4995076871799E+03
 ::: VIRIAL COEFFICIENT                            9.9991012847194E-01
 TTTTTTTTTTTTTTTTTTTTTTTTTTTTTT TOTENY      TELAPSE      415.72 TCPU      400.28
 CYC  38 ETOT(AU) -5.499507687180E+03 DETOT -6.66E-08 tst  1.18E-10 PX  8.69E-06

 == SCF ENDED - CONVERGENCE ON ENERGY      E(AU) -5.4995076871799E+03 CYCLES  38

 TOTAL ENERGY(HF)(AU)(  38) -5.4995076871799E+03 DE-6.7E-08 tst 1.2E-10 PX 8.7E-06

 *******************************************************************************
 *                             FORCE CALCULATION                               *
 *******************************************************************************

 INFORMATION **** EXCPOG **** EXCH. BIPO BUFFER LENGTH (WORDS) =   1440000
 WARNING **** EXCPOG **** EXCH. BIPO BUFFER TOO SMALL - TO AVOID I/O SET EXCHSIZE =    619956
 INFORMATION **** GENPOG **** BIPO BUFFER LENGTH (WORDS) =    251600
 TTTTTTTTTTTTTTTTTTTTTTTTTTTTTT SHELXG      TELAPSE      813.93 TCPU      797.97

 CARTESIAN FORCES (ANALYTICAL)
   ATOM                     X                   Y                   Z
   1  26             7.401486830834E-15  2.072416312634E-14  6.944948965604E-05
   2  26             1.443289932013E-15 -7.105427357601E-15 -6.944463815017E-05
   3  26            -8.881784197001E-16 -1.820765760385E-14 -6.944463822833E-05
   4  26            -2.102022259957E-14  9.177843670235E-15  6.944948968091E-05
   5   8            -7.556800000068E-03  4.362914557766E-03 -1.617263122692E-09
   6   8             5.158495038534E-09 -8.725838050273E-03 -1.617250563162E-09
   7   8             7.556794841588E-03  4.362923492518E-03 -1.617258153151E-09
   8   8             7.556794841613E-03 -4.362923492502E-03 -1.617239945839E-09
   9   8             5.158460094264E-09  8.725838050262E-03 -1.617246371688E-09
  10   8            -7.556800000073E-03 -4.362914557774E-03 -1.617251159525E-09

 RESULTANT FORCE     1.433748952895E-15  2.257742603984E-15 -5.508793382573E-13

ATOMIC PART

 SYMMETRY ALLOWED FORCES (ANALYTICAL) (DIRECTION, FORCE)

    1  1.0980928E-04    2 -8.5049984E-05    3 -1.8510304E-02    4  1.0686914E-02

CELL PART

 SYMMETRY ALLOWED FORCES (ANALYTICAL) (DIRECTION, FORCE)

    1  5.8381829E-02    2  5.5475462E-03
 TTTTTTTTTTTTTTTTTTTTTTTTTTTTTT TOTGRA      TELAPSE      832.13 TCPU      816.13
 INFORMATION **** optc001 **** GEOMETRY OUTPUT FILE
 CLASSICAL MODEL (SCHLEGEL) USED AS INITIAL HESSIAN MATRIX
 REFERENCE GEOMETRY DEFINED

 MAX GRADIENT      0.058382  THRESHOLD              0.000450 CONVERGED NO
 RMS GRADIENT      0.025482  THRESHOLD              0.000300 CONVERGED NO

 GRADIENT NORM     0.062419  GRADIENT THRESHOLD     0.500000

 PREDICTED ENERGY CHANGE    -0.215E-03

 INITIAL DISPLACEMENTS
 -0.000015  0.000012 -0.001139  0.000658  0.003028  0.002345
 TTTTTTTTTTTTTTTTTTTTTTTTTTTTTT OPTI        TELAPSE      832.20 TCPU      816.20

 OPTOPTOPTOPTOPTOPTOPTOPTOPTOPTOPTOPTOPTOPTOPTOPTOPTOPTOPTOPTOPTOPTOPTOPTOPTOPT

 STARTING GEOMETRY OPTIMIZATION - INFORMATION ON SCF MOVED TO SCFOUT.LOG
 GEOMETRY OPTIMIZATION INFORMATION STORED IN OPTINFO.DAT

 OPTOPTOPTOPTOPTOPTOPTOPTOPTOPTOPTOPTOPTOPTOPTOPTOPTOPTOPTOPTOPTOPTOPTOPTOPTOPT
 *******************************************************************************
 COORDINATE AND CELL OPTIMIZATION - POINT    2
 *******************************************************************************
 LATTICE PARAMETERS (ANGSTROMS AND DEGREES) - BOHR = 0.5291772083 ANGSTROM
 PRIMITIVE CELL - CENTRING CODE 7/1 VOLUME=   100.999813 - DENSITY 5.256 g/cm^3
         A              B              C           ALPHA      BETA       GAMMA 
     5.43585488     5.43585488     5.43585488    55.236096  55.236096  55.236096
 *******************************************************************************
 ATOMS IN THE ASYMMETRIC UNIT    3 - ATOMS IN THE UNIT CELL:   10
     ATOM              X/A                 Y/B                 Z/C    
 *******************************************************************************
   1 T  26 FE    3.552996418151E-01  3.552996418151E-01  3.552996418151E-01
   2 T  26 FE1   1.447003763642E-01  1.447003763642E-01  1.447003763642E-01
   3 F  26 FE1  -3.552996236358E-01 -3.552996236358E-01 -3.552996236358E-01
   4 F  26 FE   -1.447003581849E-01 -1.447003581849E-01 -1.447003581849E-01
   5 T   8 O    -4.441563789097E-01 -5.584359655152E-02  2.499999572819E-01
   6 F   8 O     2.499999572819E-01 -4.441563789097E-01 -5.584359655152E-02
   7 F   8 O    -5.584359655152E-02  2.499999572819E-01 -4.441563789097E-01
   8 F   8 O     4.441564034485E-01  5.584362109030E-02 -2.500000427181E-01
   9 F   8 O    -2.500000427181E-01  4.441564034485E-01  5.584362109030E-02
  10 F   8 O     5.584362109030E-02 -2.500000427181E-01  4.441564034485E-01

 TRANSFORMATION MATRIX PRIMITIVE-CRYSTALLOGRAPHIC CELL
  1.0000  0.0000  1.0000 -1.0000  1.0000  1.0000  0.0000 -1.0000  1.0000

 *******************************************************************************
 CRYSTALLOGRAPHIC CELL (VOLUME=        302.99943815)
         A              B              C           ALPHA      BETA       GAMMA 
     5.03985465     5.03985465    13.77447858    90.000000  90.000000 120.000000

 COORDINATES IN THE CRYSTALLOGRAPHIC CELL
     ATOM              X/A                 Y/B                 Z/C    
 *******************************************************************************
   1 T  26 FE    3.333333333333E-01 -3.333333333333E-01  2.196630848176E-02
   2 T  26 FE1   8.079301516836E-17  5.412632388208E-18  1.447003763642E-01
   3 F  26 FE1  -3.333333333333E-01  3.333333333333E-01 -2.196629030250E-02
   4 F  26 FE    5.386201011224E-17  2.693153165222E-17 -1.447003581849E-01
   5 T   8 O    -3.608230395166E-01 -3.333332966750E-01 -8.333333939309E-02
   6 F   8 O     3.333332966750E-01 -2.748974284157E-02 -8.333333939309E-02
   7 F   8 O     2.748974284157E-02  3.608230395166E-01 -8.333333939309E-02
   8 F   8 O     3.608230761749E-01  3.333333699916E-01  8.333332727358E-02
   9 F   8 O    -3.333333699916E-01  2.748970618327E-02  8.333332727358E-02
  10 F   8 O    -2.748970618327E-02 -3.608230761749E-01  8.333332727358E-02

 T = ATOM BELONGING TO THE ASYMMETRIC UNIT

 TOTAL ENERGY(HF)(AU)(   9) -5.4995079184849E+03     DE (AU)   -2.313E-04

 SYMMETRY ALLOWED FORCES  (COORDINATE, FORCE)

    1  2.5832613E-04    2 -2.0031241E-04    3 -1.8210668E-02    4  1.0513688E-02
    5  5.6524246E-02    6  5.4158948E-03

 GRADIENT NORM     0.060552  GRADIENT THRESHOLD     0.500000

 PREDICTED ENERGY CHANGE    -0.369E-02

 MAX GRADIENT      0.056524  THRESHOLD              0.000450 CONVERGED NO
 RMS GRADIENT      0.024720  THRESHOLD              0.000300 CONVERGED NO
 MAX DISPLAC.      0.111150  THRESHOLD              0.001800 CONVERGED NO
 RMS DISPLAC.      0.065858  THRESHOLD              0.001200 CONVERGED NO
 TTTTTTTTTTTTTTTTTTTTTTTTTTTTTT OPTI        TELAPSE     1392.91 TCPU     1375.30
 *******************************************************************************
 COORDINATE AND CELL OPTIMIZATION - POINT    3
 *******************************************************************************
 LATTICE PARAMETERS (ANGSTROMS AND DEGREES) - BOHR = 0.5291772083 ANGSTROM
 PRIMITIVE CELL - CENTRING CODE 7/1 VOLUME=   103.914164 - DENSITY 5.109 g/cm^3
         A              B              C           ALPHA      BETA       GAMMA 
     5.46931014     5.46931014     5.46931014    55.615023  55.615023  55.615023
 *******************************************************************************
 ATOMS IN THE ASYMMETRIC UNIT    3 - ATOMS IN THE UNIT CELL:   10
     ATOM              X/A                 Y/B                 Z/C    
 *******************************************************************************
   1 T  26 FE    3.555253424632E-01  3.555253424632E-01  3.555253424632E-01
   2 T  26 FE1   1.444757345218E-01  1.444757345218E-01  1.444757345218E-01
   3 F  26 FE1  -3.555242654782E-01 -3.555242654782E-01 -3.555242654782E-01
   4 F  26 FE   -1.444746575368E-01 -1.444746575368E-01 -1.444746575368E-01
   5 T   8 O    -4.470613183769E-01 -5.293792233528E-02  2.499981637272E-01
   6 F   8 O     2.499981637272E-01 -4.470613183769E-01 -5.293792233528E-02
   7 F   8 O    -5.293792233528E-02  2.499981637272E-01 -4.470613183769E-01
   8 F   8 O     4.470620776647E-01  5.293868162306E-02 -2.500018362728E-01
   9 F   8 O    -2.500018362728E-01  4.470620776647E-01  5.293868162306E-02
  10 F   8 O     5.293868162306E-02 -2.500018362728E-01  4.470620776647E-01

 TRANSFORMATION MATRIX PRIMITIVE-CRYSTALLOGRAPHIC CELL
  1.0000  0.0000  1.0000 -1.0000  1.0000  1.0000  0.0000 -1.0000  1.0000

 *******************************************************************************
 CRYSTALLOGRAPHIC CELL (VOLUME=        311.74249190)
         A              B              C           ALPHA      BETA       GAMMA 
     5.10289486     5.10289486    13.82394924    90.000000  90.000000 120.000000

 COORDINATES IN THE CRYSTALLOGRAPHIC CELL
     ATOM              X/A                 Y/B                 Z/C    
 *******************************************************************************
   1 T  26 FE    3.333333333333E-01 -3.333333333333E-01  2.219200912987E-02
   2 T  26 FE1   8.079301516836E-17  5.439756660394E-18  1.444757345218E-01
   3 F  26 FE1  -3.333333333333E-01  3.333333333333E-01 -2.219093214488E-02
   4 F  26 FE    5.386201011224E-17  2.695865592441E-17 -1.444746575368E-01
   5 T   8 O    -3.637276260486E-01 -3.333318560556E-01 -8.333369232833E-02
   6 F   8 O     3.333318560556E-01 -3.039576999305E-02 -8.333369232833E-02
   7 F   8 O     3.039576999305E-02  3.637276260486E-01 -8.333369232833E-02
   8 F   8 O     3.637291033264E-01  3.333348106111E-01  8.333297433834E-02
   9 F   8 O    -3.333348106111E-01  3.039429271527E-02  8.333297433834E-02
  10 F   8 O    -3.039429271527E-02 -3.637291033264E-01  8.333297433834E-02

 T = ATOM BELONGING TO THE ASYMMETRIC UNIT

 TOTAL ENERGY(HF)(AU)(  16) -5.4995123027313E+03     DE (AU)   -4.384E-03

 SYMMETRY ALLOWED FORCES  (COORDINATE, FORCE)

    1  2.9684455E-03    2 -2.3084848E-03    3 -4.9581131E-03    4  2.8535657E-03
    5  5.5717370E-04    6  6.8045545E-04

 GRADIENT NORM     0.006902  GRADIENT THRESHOLD     0.500000

 PREDICTED ENERGY CHANGE    -0.742E-04

 MAX GRADIENT      0.004958  THRESHOLD              0.000450 CONVERGED NO
 RMS GRADIENT      0.002818  THRESHOLD              0.000300 CONVERGED NO
 MAX DISPLAC.      0.024401  THRESHOLD              0.001800 CONVERGED NO
 RMS DISPLAC.      0.012755  THRESHOLD              0.001200 CONVERGED NO
 TTTTTTTTTTTTTTTTTTTTTTTTTTTTTT OPTI        TELAPSE     2018.05 TCPU     1998.29
 *******************************************************************************
 COORDINATE AND CELL OPTIMIZATION - POINT    4
 *******************************************************************************
 LATTICE PARAMETERS (ANGSTROMS AND DEGREES) - BOHR = 0.5291772083 ANGSTROM
 PRIMITIVE CELL - CENTRING CODE 7/1 VOLUME=   104.029326 - DENSITY 5.103 g/cm^3
         A              B              C           ALPHA      BETA       GAMMA 
     5.46730338     5.46730338     5.46730338    55.699024  55.699024  55.699024
 *******************************************************************************
 ATOMS IN THE ASYMMETRIC UNIT    3 - ATOMS IN THE UNIT CELL:   10
     ATOM              X/A                 Y/B                 Z/C    
 *******************************************************************************
   1 T  26 FE    3.556788348316E-01  3.556788348316E-01  3.556788348316E-01
   2 T  26 FE1   1.443224751018E-01  1.443224751018E-01  1.443224751018E-01
   3 F  26 FE1  -3.556775248982E-01 -3.556775248982E-01 -3.556775248982E-01
   4 F  26 FE   -1.443211651684E-01 -1.443211651684E-01 -1.443211651684E-01
   5 T   8 O    -4.478086463804E-01 -5.219115564085E-02  2.499984920878E-01
   6 F   8 O     2.499984920878E-01 -4.478086463804E-01 -5.219115564085E-02
   7 F   8 O    -5.219115564085E-02  2.499984920878E-01 -4.478086463804E-01
   8 F   8 O     4.478088443591E-01  5.219135361960E-02 -2.500015079122E-01
   9 F   8 O    -2.500015079122E-01  4.478088443591E-01  5.219135361960E-02
  10 F   8 O     5.219135361960E-02 -2.500015079122E-01  4.478088443591E-01

 TRANSFORMATION MATRIX PRIMITIVE-CRYSTALLOGRAPHIC CELL
  1.0000  0.0000  1.0000 -1.0000  1.0000  1.0000  0.0000 -1.0000  1.0000

 *******************************************************************************
 CRYSTALLOGRAPHIC CELL (VOLUME=        312.08797718)
         A              B              C           ALPHA      BETA       GAMMA 
     5.10811110     5.10811110    13.81101949    90.000000  90.000000 120.000000

 COORDINATES IN THE CRYSTALLOGRAPHIC CELL
     ATOM              X/A                 Y/B                 Z/C    
 *******************************************************************************
   1 T  26 FE    3.333333333333E-01 -3.333333333333E-01  2.234550149829E-02
   2 T  26 FE1   8.079301516836E-17  5.446720313350E-18  1.443224751018E-01
   3 F  26 FE1  -3.333333333333E-01  3.333333333333E-01 -2.234419156485E-02
   4 F  26 FE    5.386201011224E-17  2.696561957736E-17 -1.443211651684E-01
   5 T   8 O    -3.644748764026E-01 -3.333322620656E-01 -8.333376997781E-02
   6 F   8 O     3.333322620656E-01 -3.114261433696E-02 -8.333376997781E-02
   7 F   8 O     3.114261433696E-02  3.644748764026E-01 -8.333376997781E-02
   8 F   8 O     3.644759476703E-01  3.333344046010E-01  8.333289668885E-02
   9 F   8 O    -3.333344046010E-01  3.114154306925E-02  8.333289668885E-02
  10 F   8 O    -3.114154306925E-02 -3.644759476703E-01  8.333289668885E-02

 T = ATOM BELONGING TO THE ASYMMETRIC UNIT

 TOTAL ENERGY(HF)(AU)(   6) -5.4995124117608E+03     DE (AU)   -1.090E-04

 SYMMETRY ALLOWED FORCES  (COORDINATE, FORCE)

    1  2.3714851E-03    2 -1.8470506E-03    3 -1.6146837E-03    4  9.2496143E-04
    5 -1.9769361E-03    6  5.6489221E-05

 GRADIENT NORM     0.004051  GRADIENT THRESHOLD     0.500000

 PREDICTED ENERGY CHANGE    -0.256E-04

 MAX GRADIENT      0.002371  THRESHOLD              0.000450 CONVERGED NO
 RMS GRADIENT      0.001654  THRESHOLD              0.000300 CONVERGED NO
 MAX DISPLAC.      0.015493  THRESHOLD              0.001800 CONVERGED NO
 RMS DISPLAC.      0.008472  THRESHOLD              0.001200 CONVERGED NO
 TTTTTTTTTTTTTTTTTTTTTTTTTTTTTT OPTI        TELAPSE     2550.52 TCPU     2528.52
 *******************************************************************************
 COORDINATE AND CELL OPTIMIZATION - POINT    5
 *******************************************************************************
 LATTICE PARAMETERS (ANGSTROMS AND DEGREES) - BOHR = 0.5291772083 ANGSTROM
 PRIMITIVE CELL - CENTRING CODE 7/1 VOLUME=   103.949792 - DENSITY 5.107 g/cm^3
         A              B              C           ALPHA      BETA       GAMMA 
     5.46335853     5.46335853     5.46335853    55.752414  55.752414  55.752414
 *******************************************************************************
 ATOMS IN THE ASYMMETRIC UNIT    3 - ATOMS IN THE UNIT CELL:   10
     ATOM              X/A                 Y/B                 Z/C    
 *******************************************************************************
   1 T  26 FE    3.558420127196E-01  3.558420127196E-01  3.558420127196E-01
   2 T  26 FE1   1.441593238078E-01  1.441593238078E-01  1.441593238078E-01
   3 F  26 FE1  -3.558406761922E-01 -3.558406761922E-01 -3.558406761922E-01
   4 F  26 FE   -1.441579872804E-01 -1.441579872804E-01 -1.441579872804E-01
   5 T   8 O    -4.482631498553E-01 -5.173750148896E-02  2.499993148169E-01
   6 F   8 O     2.499993148169E-01 -4.482631498553E-01 -5.173750148896E-02
   7 F   8 O    -5.173750148896E-02  2.499993148169E-01 -4.482631498553E-01
   8 F   8 O     4.482624985110E-01  5.173685014466E-02 -2.500006851831E-01
   9 F   8 O    -2.500006851831E-01  4.482624985110E-01  5.173685014466E-02
  10 F   8 O     5.173685014466E-02 -2.500006851831E-01  4.482624985110E-01

 TRANSFORMATION MATRIX PRIMITIVE-CRYSTALLOGRAPHIC CELL
  1.0000  0.0000  1.0000 -1.0000  1.0000  1.0000  0.0000 -1.0000  1.0000

 *******************************************************************************
 CRYSTALLOGRAPHIC CELL (VOLUME=        311.84937569)
         A              B              C           ALPHA      BETA       GAMMA 
     5.10892620     5.10892620    13.79605729    90.000000  90.000000 120.000000

 COORDINATES IN THE CRYSTALLOGRAPHIC CELL
     ATOM              X/A                 Y/B                 Z/C    
 *******************************************************************************
   1 T  26 FE    3.333333333333E-01 -3.333333333333E-01  2.250867938629E-02
   2 T  26 FE1   8.079301516836E-17  5.450944856400E-18  1.441593238078E-01
   3 F  26 FE1  -3.333333333333E-01  3.333333333333E-01 -2.250734285888E-02
[...]

 T = ATOM BELONGING TO THE ASYMMETRIC UNIT

 TOTAL ENERGY(HF)(AU)(   7) -5.4995124231205E+03     DE (AU)    3.408E-06

 SYMMETRY ALLOWED FORCES  (COORDINATE, FORCE)

    1  5.9265154E-04    2 -4.6624256E-04    3  4.3541077E-04    4 -2.5208818E-04
    5 -2.7213691E-06    6 -1.1279872E-04

 GRADIENT NORM     0.000913  GRADIENT THRESHOLD     0.500000

 PREDICTED ENERGY CHANGE    -0.859E-06

 MAX GRADIENT      0.000593  THRESHOLD              0.000450 CONVERGED NO
 RMS GRADIENT      0.000373  THRESHOLD              0.000300 CONVERGED NO
 MAX DISPLAC.      0.001427  THRESHOLD              0.001800 CONVERGED YES
 RMS DISPLAC.      0.000807  THRESHOLD              0.001200 CONVERGED YES
 TTTTTTTTTTTTTTTTTTTTTTTTTTTTTT OPTI        TELAPSE     3651.20 TCPU     3624.98
 *******************************************************************************
 COORDINATE AND CELL OPTIMIZATION - POINT    7
 *******************************************************************************
 LATTICE PARAMETERS (ANGSTROMS AND DEGREES) - BOHR = 0.5291772083 ANGSTROM
 PRIMITIVE CELL - CENTRING CODE 7/1 VOLUME=   103.886552 - DENSITY 5.110 g/cm^3
         A              B              C           ALPHA      BETA       GAMMA 
     5.46124554     5.46124554     5.46124554    55.773481  55.773481  55.773481
 *******************************************************************************
 ATOMS IN THE ASYMMETRIC UNIT    3 - ATOMS IN THE UNIT CELL:   10
     ATOM              X/A                 Y/B                 Z/C    
 *******************************************************************************
   1 T  26 FE    3.559771713427E-01  3.559771713427E-01  3.559771713427E-01
   2 T  26 FE1   1.440238442524E-01  1.440238442524E-01  1.440238442524E-01
   3 F  26 FE1  -3.559761557476E-01 -3.559761557476E-01 -3.559761557476E-01
   4 F  26 FE   -1.440228286573E-01 -1.440228286573E-01 -1.440228286573E-01
   5 T   8 O    -4.483771646470E-01 -5.162395797199E-02  2.500001070239E-01
   6 F   8 O     2.500001070239E-01 -4.483771646470E-01 -5.162395797199E-02
   7 F   8 O    -5.162395797199E-02  2.500001070239E-01 -4.483771646470E-01
   8 F   8 O     4.483760420280E-01  5.162283535295E-02 -2.499998929761E-01
   9 F   8 O    -2.499998929761E-01  4.483760420280E-01  5.162283535295E-02
  10 F   8 O     5.162283535295E-02 -2.499998929761E-01  4.483760420280E-01

 TRANSFORMATION MATRIX PRIMITIVE-CRYSTALLOGRAPHIC CELL
  1.0000  0.0000  1.0000 -1.0000  1.0000  1.0000  0.0000 -1.0000  1.0000

 *******************************************************************************
 CRYSTALLOGRAPHIC CELL (VOLUME=        311.65965577)
         A              B              C           ALPHA      BETA       GAMMA 
     5.10872517     5.10872517    13.78874928    90.000000  90.000000 120.000000

 COORDINATES IN THE CRYSTALLOGRAPHIC CELL
     ATOM              X/A                 Y/B                 Z/C    
 *******************************************************************************
   1 T  26 FE    3.333333333333E-01 -3.333333333333E-01  2.264383800941E-02
   2 T  26 FE1   8.079301516836E-17  5.451996732969E-18  1.440238442524E-01
   3 F  26 FE1  -3.333333333333E-01  3.333333333333E-01 -2.264282241423E-02
   4 F  26 FE    5.386201011224E-17  2.697089599698E-17 -1.440228286573E-01
   5 T   8 O    -3.650434927820E-01 -3.333337788889E-01 -8.333367186506E-02
   6 F   8 O     3.333337788889E-01 -3.170971389307E-02 -8.333367186506E-02
   7 F   8 O     3.170971389307E-02  3.650434927820E-01 -8.333367186506E-02
   8 F   8 O     3.650430472264E-01  3.333328877778E-01  8.333299480161E-02
   9 F   8 O    -3.333328877778E-01  3.171015944865E-02  8.333299480161E-02
  10 F   8 O    -3.171015944865E-02 -3.650430472264E-01  8.333299480161E-02

 T = ATOM BELONGING TO THE ASYMMETRIC UNIT

 TOTAL ENERGY(HF)(AU)(   5) -5.4995124231262E+03     DE (AU)   -5.706E-09

 SYMMETRY ALLOWED FORCES  (COORDINATE, FORCE)

    1  2.5595820E-04    2 -2.0390124E-04    3  2.0576046E-04    4 -1.1857939E-04
    5  1.6456732E-04    6 -5.1084007E-05

 GRADIENT NORM     0.000440  GRADIENT THRESHOLD     0.500000

 PREDICTED ENERGY CHANGE    -0.305E-06

 MAX GRADIENT      0.000256  THRESHOLD              0.000450 CONVERGED YES
 RMS GRADIENT      0.000179  THRESHOLD              0.000300 CONVERGED YES
 MAX DISPLAC.      0.000987  THRESHOLD              0.001800 CONVERGED YES
 RMS DISPLAC.      0.000593  THRESHOLD              0.001200 CONVERGED YES

 CONVERGENCE TESTS SATISFIED AFTER   7 ENERGY AND GRADIENT CALCULATIONS

 ******************************************************************
 * OPT END - CONVERGED * E(AU):  -5.499512423126E+03  POINTS    7 *
 ******************************************************************


 NEIGHBORS OF THE NON-EQUIVALENT ATOMS

 N = NUMBER OF NEIGHBORS AT DISTANCE R
    ATOM  N     R/ANG      R/AU   NEIGHBORS (ATOM LABELS AND CELL INDICES)
   1 FE   3     1.9754     3.7330   8 O   -1 0 1   9 O    0 0 0  10 O   -1 1 0
   1 FE   3     2.1236     4.0131   5 O    0 0 0   6 O   -1 1 0   7 O   -1 0 1
   1 FE   1     2.9226     5.5229   2 FE  -1 0 0
   1 FE   3     3.0149     5.6973   3 FE   0 0 0   3 FE  -1 1 0   3 FE   0 1-1
   1 FE   3     3.3913     6.4086   2 FE   0 0 0   2 FE  -1 0 1   2 FE  -1 1 0
   1 FE   3     3.4314     6.4844   8 O   -1 1 0   9 O   -1 0 1  10 O    0 0 0

   2 FE   3     1.9754     3.7330   8 O    0 0 0   9 O    0 0 0  10 O    0 0 0
   2 FE   3     2.1236     4.0130   5 O    1 0 0   6 O    0 1 0   7 O    0 0 1
   2 FE   1     2.9226     5.5229   1 FE   1 0 0
   2 FE   3     3.0149     5.6973   4 FE   1 0 0   4 FE   0 1 0   4 FE   0 0 1
   2 FE   3     3.3913     6.4086   1 FE   0 0 0   1 FE   1 0-1   1 FE   1-1 0
   2 FE   3     3.4314     6.4844   8 O   -1 0 1   9 O    1-1 0  10 O    0 1-1

   5 O    1     1.9754     3.7330   4 FE   0 0 0
   5 O    1     1.9754     3.7330   3 FE   0 0 0
   5 O    1     2.1236     4.0130   2 FE  -1 0 0
   5 O    1     2.1236     4.0131   1 FE   0 0 0
   5 O    2     2.6689     5.0436   6 O   -1 1 0   7 O   -1 0 1
   5 O    2     2.7811     5.2555   8 O   -1 0 1   8 O   -1 0 0

 MMMMMMMMMMMMMMMMMMMMMMMMMMMMMMMMMMMMMMMMMMMMMMMMMMMMMMMMMMMMMMMMMMMMMMMMMMMMMMM
     ALPHA+BETA ELECTRONS
 MULLIKEN POPULATION ANALYSIS - NO. OF ELECTRONS  152.000000

  ATOM    Z CHARGE  A.O. POPULATION

   1 FE  26 23.378  2.000  1.905  2.060  2.060  2.060  0.385  0.656  0.656
                    0.654  0.851  0.881  0.881  0.870  0.870  1.308  0.992
                    0.992  0.991  0.431  0.314  0.314  0.314  0.175  0.194
                    0.194  0.187  0.187
   2 FE  26 23.378  2.000  1.905  2.060  2.060  2.060  0.385  0.656  0.656
                    0.654  0.851  0.881  0.881  0.870  0.870  1.308  0.992
                    0.992  0.991  0.431  0.314  0.314  0.314  0.175  0.194
                    0.194  0.187  0.187
   3 FE  26 23.378  2.000  1.905  2.060  2.060  2.060  0.385  0.656  0.656
                    0.654  0.851  0.881  0.881  0.870  0.870  1.308  0.992
                    0.992  0.991  0.431  0.314  0.314  0.314  0.175  0.194
                    0.194  0.187  0.187
   4 FE  26 23.378  2.000  1.905  2.060  2.060  2.060  0.385  0.656  0.656
                    0.654  0.851  0.881  0.881  0.870  0.870  1.308  0.992
                    0.992  0.991  0.431  0.314  0.314  0.314  0.175  0.194
                    0.194  0.187  0.187
   5 O    8  9.748  1.996  0.476  0.716  0.721  0.723  0.889  0.567  0.570
                    0.570  0.627  0.634  0.627  0.631
   6 O    8  9.748  1.996  0.476  0.723  0.714  0.723  0.889  0.571  0.566
                    0.570  0.627  0.624  0.637  0.631
   7 O    8  9.748  1.996  0.476  0.716  0.721  0.723  0.889  0.567  0.570
                    0.570  0.627  0.634  0.627  0.631
   8 O    8  9.748  1.996  0.476  0.716  0.721  0.723  0.889  0.567  0.570
                    0.570  0.627  0.634  0.627  0.631
   9 O    8  9.748  1.996  0.476  0.723  0.714  0.723  0.889  0.571  0.566
                    0.570  0.627  0.624  0.637  0.631
  10 O    8  9.748  1.996  0.476  0.716  0.721  0.723  0.889  0.567  0.570
                    0.570  0.627  0.634  0.627  0.631

  ATOM    Z CHARGE  SHELL POPULATION

   1 FE  26 23.378  2.000  8.085  2.351  4.352  4.282  1.372  0.937
   2 FE  26 23.378  2.000  8.085  2.351  4.352  4.282  1.372  0.937
   3 FE  26 23.378  2.000  8.085  2.351  4.352  4.282  1.372  0.937
   4 FE  26 23.378  2.000  8.085  2.351  4.352  4.282  1.372  0.937
   5 O    8  9.748  1.996  2.636  2.597  2.519
   6 O    8  9.748  1.996  2.636  2.597  2.519
   7 O    8  9.748  1.996  2.636  2.597  2.519
   8 O    8  9.748  1.996  2.636  2.597  2.519
   9 O    8  9.748  1.996  2.636  2.597  2.519
  10 O    8  9.748  1.996  2.636  2.597  2.519

 OVERLAP POPULATION CONDENSED TO ATOMS FOR FIRST   6 NEIGHBORS

 ATOM A   1 FE   ATOM B     CELL      R(AB)/AU R(AB)/ANG    OVPOP(AB)
                  8 O    ( -1  0  1)     3.733     1.975     0.005
                  5 O    (  0  0  0)     4.013     2.124     0.005
                  2 FE   ( -1  0  0)     5.523     2.923     0.000
                  3 FE   (  0  0  0)     5.697     3.015     0.000
                  2 FE   (  0  0  0)     6.409     3.391     0.000
                  8 O    ( -1  1  0)     6.484     3.431     0.000

 ATOM A   2 FE   ATOM B     CELL      R(AB)/AU R(AB)/ANG    OVPOP(AB)
                  8 O    (  0  0  0)     3.733     1.975     0.005
                  5 O    (  1  0  0)     4.013     2.124     0.005
                  1 FE   (  1  0  0)     5.523     2.923     0.000
                  4 FE   (  1  0  0)     5.697     3.015     0.000
                  1 FE   (  0  0  0)     6.409     3.391     0.000
                  8 O    ( -1  0  1)     6.484     3.431     0.000

 ATOM A   5 O    ATOM B     CELL      R(AB)/AU R(AB)/ANG    OVPOP(AB)
                  4 FE   (  0  0  0)     3.733     1.975     0.005
                  3 FE   (  0  0  0)     3.733     1.975     0.005
                  2 FE   ( -1  0  0)     4.013     2.124     0.005
                  1 FE   (  0  0  0)     4.013     2.124     0.005
                  6 O    ( -1  1  0)     5.044     2.669    -0.047
                  8 O    ( -1  0  1)     5.256     2.781    -0.017
 MMMMMMMMMMMMMMMMMMMMMMMMMMMMMMMMMMMMMMMMMMMMMMMMMMMMMMMMMMMMMMMMMMMMMMMMMMMMMMM
     ALPHA-BETA ELECTRONS
 MULLIKEN POPULATION ANALYSIS - NO. OF ELECTRONS    0.000000

  ATOM    Z CHARGE  A.O. POPULATION

   1 FE  26  4.768  0.000  0.003 -0.002 -0.002 -0.002  0.000  0.012  0.012
                    0.011  0.833  0.829  0.829  0.830  0.830  0.016  0.015
                    0.015  0.015 -0.014 -0.022 -0.022 -0.022  0.143  0.109
                    0.109  0.122  0.122
   2 FE  26 -4.768  0.000 -0.003  0.002  0.002  0.002  0.000 -0.012 -0.012
                   -0.011 -0.833 -0.829 -0.829 -0.830 -0.830 -0.016 -0.015
                   -0.015 -0.015  0.014  0.022  0.022  0.022 -0.143 -0.109
                   -0.109 -0.122 -0.122
   3 FE  26 -4.768  0.000 -0.003  0.002  0.002  0.002  0.000 -0.012 -0.012
                   -0.011 -0.833 -0.829 -0.829 -0.830 -0.830 -0.016 -0.015
                   -0.015 -0.015  0.014  0.022  0.022  0.022 -0.143 -0.109
                   -0.109 -0.122 -0.122
   4 FE  26  4.768  0.000  0.003 -0.002 -0.002 -0.002  0.000  0.012  0.012
                    0.011  0.833  0.829  0.829  0.830  0.830  0.016  0.015
                    0.015  0.015 -0.014 -0.022 -0.022 -0.022  0.143  0.109
                    0.109  0.122  0.122
   5 O    8  0.000  0.000  0.000  0.006 -0.006  0.000  0.000 -0.001  0.001
                    0.000  0.000  0.009 -0.009  0.000
   6 O    8  0.000  0.000  0.000  0.000  0.000  0.000  0.000  0.000  0.000
                    0.000  0.000  0.000  0.000  0.000
   7 O    8  0.000  0.000  0.000 -0.006  0.006  0.000  0.000  0.001 -0.001
                    0.000  0.000 -0.009  0.009  0.000
   8 O    8  0.000  0.000  0.000 -0.006  0.006  0.000  0.000  0.001 -0.001
                    0.000  0.000 -0.009  0.009  0.000
   9 O    8  0.000  0.000  0.000  0.000  0.000  0.000  0.000  0.000  0.000
                    0.000  0.000  0.000  0.000  0.000
  10 O    8  0.000  0.000  0.000  0.006 -0.006  0.000  0.000 -0.001  0.001
                    0.000  0.000  0.009 -0.009  0.000

  ATOM    Z CHARGE  SHELL POPULATION

   1 FE  26  4.768  0.000 -0.004  0.035  4.151  0.062 -0.080  0.604
   2 FE  26 -4.768  0.000  0.004 -0.035 -4.151 -0.062  0.080 -0.604
   3 FE  26 -4.768  0.000  0.004 -0.035 -4.151 -0.062  0.080 -0.604
   4 FE  26  4.768  0.000 -0.004  0.035  4.151  0.062 -0.080  0.604
   5 O    8  0.000  0.000  0.000  0.000  0.000
   6 O    8  0.000  0.000  0.000  0.000  0.000
   7 O    8  0.000  0.000  0.000  0.000  0.000
   8 O    8  0.000  0.000  0.000  0.000  0.000
   9 O    8  0.000  0.000  0.000  0.000  0.000
  10 O    8  0.000  0.000  0.000  0.000  0.000

 OVERLAP POPULATION CONDENSED TO ATOMS FOR FIRST   6 NEIGHBORS

 ATOM A   1 FE   ATOM B     CELL      R(AB)/AU R(AB)/ANG    OVPOP(AB)
                  8 O    ( -1  0  1)     3.733     1.975    -0.032
                  5 O    (  0  0  0)     4.013     2.124    -0.018
                  2 FE   ( -1  0  0)     5.523     2.923     0.000
                  3 FE   (  0  0  0)     5.697     3.015     0.000
                  2 FE   (  0  0  0)     6.409     3.391     0.000
                  8 O    ( -1  1  0)     6.484     3.431     0.000

 ATOM A   2 FE   ATOM B     CELL      R(AB)/AU R(AB)/ANG    OVPOP(AB)
                  8 O    (  0  0  0)     3.733     1.975     0.032
                  5 O    (  1  0  0)     4.013     2.124     0.018
                  1 FE   (  1  0  0)     5.523     2.923     0.000
                  4 FE   (  1  0  0)     5.697     3.015     0.000
                  1 FE   (  0  0  0)     6.409     3.391     0.000
                  8 O    ( -1  0  1)     6.484     3.431     0.000

 ATOM A   5 O    ATOM B     CELL      R(AB)/AU R(AB)/ANG    OVPOP(AB)
                  4 FE   (  0  0  0)     3.733     1.975    -0.032
                  3 FE   (  0  0  0)     3.733     1.975     0.032
                  2 FE   ( -1  0  0)     4.013     2.124     0.018
                  1 FE   (  0  0  0)     4.013     2.124    -0.018
                  6 O    ( -1  1  0)     5.044     2.669     0.000
                  8 O    ( -1  0  1)     5.256     2.781     0.000
 EIGENVECTORS IN FORTRAN UNIT  8

 FINAL OPTIMIZED GEOMETRY - DIMENSIONALITY OF THE SYSTEM      3
 (NON PERIODIC DIRECTION: LATTICE PARAMETER FORMALLY SET TO 500)
 *******************************************************************************
 LATTICE PARAMETERS (ANGSTROMS AND DEGREES) - BOHR = 0.5291772083 ANGSTROM
 PRIMITIVE CELL - CENTRING CODE 7/1 VOLUME=   103.886552 - DENSITY 5.110 g/cm^3
         A              B              C           ALPHA      BETA       GAMMA 
     5.46124554     5.46124554     5.46124554    55.773481  55.773481  55.773481
 *******************************************************************************
 ATOMS IN THE ASYMMETRIC UNIT    3 - ATOMS IN THE UNIT CELL:   10
     ATOM              X/A                 Y/B                 Z/C    
 *******************************************************************************
   1 T  26 FE    3.559771713427E-01  3.559771713427E-01  3.559771713427E-01
   2 T  26 FE1   1.440238442524E-01  1.440238442524E-01  1.440238442524E-01
   3 F  26 FE1  -3.559761557476E-01 -3.559761557476E-01 -3.559761557476E-01
   4 F  26 FE   -1.440228286573E-01 -1.440228286573E-01 -1.440228286573E-01
   5 T   8 O    -4.483771646470E-01 -5.162395797199E-02  2.500001070239E-01
   6 F   8 O     2.500001070239E-01 -4.483771646470E-01 -5.162395797199E-02
   7 F   8 O    -5.162395797199E-02  2.500001070239E-01 -4.483771646470E-01
   8 F   8 O     4.483760420280E-01  5.162283535295E-02 -2.499998929761E-01
   9 F   8 O    -2.499998929761E-01  4.483760420280E-01  5.162283535295E-02
  10 F   8 O     5.162283535295E-02 -2.499998929761E-01  4.483760420280E-01

 TRANSFORMATION MATRIX PRIMITIVE-CRYSTALLOGRAPHIC CELL
  1.0000  0.0000  1.0000 -1.0000  1.0000  1.0000  0.0000 -1.0000  1.0000

 *******************************************************************************
 CRYSTALLOGRAPHIC CELL (VOLUME=        311.65965577)
         A              B              C           ALPHA      BETA       GAMMA 
     5.10872517     5.10872517    13.78874928    90.000000  90.000000 120.000000

 COORDINATES IN THE CRYSTALLOGRAPHIC CELL
     ATOM              X/A                 Y/B                 Z/C    
 *******************************************************************************
   1 T  26 FE    3.333333333333E-01 -3.333333333333E-01  2.264383800941E-02
   2 T  26 FE1   8.079301516836E-17  5.451996732969E-18  1.440238442524E-01
   3 F  26 FE1  -3.333333333333E-01  3.333333333333E-01 -2.264282241423E-02
   4 F  26 FE    5.386201011224E-17  2.697089599698E-17 -1.440228286573E-01
   5 T   8 O    -3.650434927820E-01 -3.333337788889E-01 -8.333367186506E-02
   6 F   8 O     3.333337788889E-01 -3.170971389307E-02 -8.333367186506E-02
   7 F   8 O     3.170971389307E-02  3.650434927820E-01 -8.333367186506E-02
   8 F   8 O     3.650430472264E-01  3.333328877778E-01  8.333299480161E-02
   9 F   8 O    -3.333328877778E-01  3.171015944865E-02  8.333299480161E-02
  10 F   8 O    -3.171015944865E-02 -3.650430472264E-01  8.333299480161E-02

 T = ATOM BELONGING TO THE ASYMMETRIC UNIT
 INFORMATION **** fort.34 **** GEOMETRY OUTPUT FILE

 DIRECT LATTICE VECTORS CARTESIAN COMPONENTS (ANGSTROM)
          X                    Y                    Z
   0.294952385259E+01   0.000000000000E+00   0.459624976066E+01
  -0.147476192629E+01   0.255436258541E+01   0.459624976066E+01
  -0.147476192629E+01  -0.255436258541E+01   0.459624976066E+01


 CARTESIAN COORDINATES - PRIMITIVE CELL
 *******************************************************************************
 *      ATOM          X(ANGSTROM)         Y(ANGSTROM)         Z(ANGSTROM)
 *******************************************************************************
   1    26 FE   -2.949523852587E+00  2.037918536554E-19  3.122302050933E-01
   2    26 FE1   3.574513880423E-16 -1.785219021675E-16  1.985908679023E+00
   3    26 FE1  -1.474761926294E+00 -2.554362585409E+00 -3.122162013060E-01
   4    26 FE    2.383009253615E-16  2.037918536554E-19 -1.985894675235E+00
   5     8 O    -1.615056733788E+00 -7.704572264843E-01 -1.149067108093E+00
   6     8 O     1.474763897559E+00 -1.013451546772E+00 -1.149067108093E+00
   7     8 O     1.402928362295E-01  1.783908773256E+00 -1.149067108093E+00
   8     8 O     1.615054762523E+00  7.704538121528E-01  1.149057772235E+00
   9     8 O    -1.474759955029E+00  1.013451546772E+00  1.149057772235E+00
  10     8 O    -1.402948074947E-01 -1.783905358925E+00  1.149057772235E+00

 ****   6 SYMMOPS - TRANSLATORS IN FRACTIONARY UNITS
  V INV                   ROTATION MATRICES                       TRANSLATOR
  1  1  1.00  0.00  0.00  0.00  1.00  0.00  0.00  0.00  1.00    0.00  0.00  0.00
  2  3  0.00  0.00  1.00  1.00  0.00  0.00  0.00  1.00  0.00    0.00  0.00  0.00
  3  2  0.00  1.00  0.00  0.00  0.00  1.00  1.00  0.00  0.00    0.00  0.00  0.00
  4  4  0.00  1.00  0.00  1.00  0.00  0.00  0.00  0.00  1.00    0.50  0.50  0.50
  5  5  1.00  0.00  0.00  0.00  0.00  1.00  0.00  1.00  0.00    0.50  0.50  0.50
  6  6  0.00  0.00  1.00  0.00  1.00  0.00  1.00  0.00  0.00    0.50  0.50  0.50
 TTTTTTTTTTTTTTTTTTTTTTTTTTTTTT END         TELAPSE     4173.89 TCPU     4146.81
 EEEEEEEEEE TERMINATION  DATE 09 03 2010 TIME 13:59:13.7
NODE    0 CPU TIME =      4146.807
NODE    1 CPU TIME =      3699.855
    TOTAL CPU TIME =      7846.662
Tue Mar  9 13:59:13 GMT 2010
